 operating system is UNIX !

 dscf (localhost.localdomain) : TURBOMOLE V7.3.1 () 25 Feb 2019 at 10:12:05
 Copyright (C) 2019 TURBOMOLE GmbH, Karlsruhe


    2021-06-10 14:04:10.221 



                             d s c f - program

                   idea & directorship : reinhart ahlrichs
                   program development : marco haeser
                                         michael baer
                           dft version : oliver treutler


                          quantum chemistry group
                          universitaet  karlsruhe
                                  germany




                          References             
                                                 
          TURBOMOLE:                             
              R. Ahlrichs, M. Baer, M. Haeser, H. Horn, and
              C. Koelmel
              Electronic structure calculations on workstation
              computers: the program system TURBOMOLE
              Chem. Phys. Lett. 162: 165 (1989)
          Density Functional:                              
              O. Treutler and R. Ahlrichs                      
              Efficient Molecular Numerical Integration Schemes
              J. Chem. Phys. 102: 346 (1995)                   
          Parallel Version:                                
              Performance of parallel TURBOMOLE for Density    
              Functional Calculations                          
              M. v. Arnim and R. Ahlrichs                      
              J. Comp. Chem. 19: 1746 (1998)                   
                                         




              +--------------------------------------------------+
              | Atomic coordinate, charge and isotop information |
              +--------------------------------------------------+

                    atomic coordinates            atom    charge  isotop
          0.00000000    0.00000000    0.54561507    n      7.000     0
         -0.87806233    1.52084857   -0.18187169    h      1.000     0
         -0.87806233   -1.52084857   -0.18187169    h      1.000     0
          1.75612466    0.00000000   -0.18187169    h      1.000     0
 
       center of nuclear mass  :   -0.00000000    0.00000000    0.41644445
       center of nuclear charge:   -0.00000000    0.00000000    0.32736904

   *************************************************************************
   ridft                                                                    
   *************************************************************************



              +--------------------------------------------------+
              |               basis set information              |
              +--------------------------------------------------+

              we will work with the 1s 3p 5d 7f 9g ... basis set
              ...i.e. with spherical basis functions...

   type   atoms  prim   cont   basis
   ---------------------------------------------------------------------------
    n        1     24     14   def-SV(P)   [3s2p1d|7s4p1d]
    h        3      4      2   def-SV(P)   [2s|4s]
   ---------------------------------------------------------------------------
   total:    4     36     20
   ---------------------------------------------------------------------------

   total number of primitive shells          :   16
   total number of contracted shells         :   12
   total number of cartesian basis functions :   21
   total number of SCF-basis functions       :   20


 integral neglect threshold       :  0.16E-08
 integral storage threshold THIZE :  0.10E-04
 integral storage threshold THIME :         5


 symmetry group of the molecule :   c3v

 the group has the following generators :
   c3(z)
   mirror plane sigma(xz)

    6 symmetry operations found

 there are 3 real representations :   a1   a2   e   

 maximum number of shells which are related by symmetry :  3


    mo occupation :
   irrep   mo's   occupied
    a1       8        3
    a2       0        0
    e        6        1
 
 number of basis functions   :                     20
 number of occupied orbitals :                      5
 

 automatic virtual orbital shift switched on 
      shift if e(lumo)-e(homo) < 0.10000000    

  
           ------------------
           density functional
           ------------------
 B-P86 functional
 exchange:    LDA + Becke (B88)
 correlation: LDA (VWN) + Perdew (P86)

 iterations will be done with small grid
  
 spherical integration : Lebedev's spherical grid
 spherical gridsize    :                     3
    i.e. gridpoints    :                   302
 value for diffuse not defined
 radial integration    : Chebyshev 2nd kind (scaling 3)
 radial gridsize       :                     3
 integration cells     :                     2
 partition function    : becke
 partition sharpness   :                     3
  
 grid rotated due to c3 or c6 main axis

          ------------------------
          nuclear repulsion energy  :   12.0340111163    
          ------------------------

 
 ------------------------------------------------------------
 DFT-D (empirical dispersive energy correction) switched on
  cf. S. Grimme, J. Comp. Chem. 25, 1463-1473 (2004)
  new parameters and C6ij from:
      S. Grimme, J. Comp. Chem. 27, 1787-1799 (2006)
  
 flag (0th, 1st or 2nd deriv.)           0
 old parameters used (C6ij=2*(C6i*C6j)/(C6i+C6j))
  
 
 global scaling parameter (s6)          1.300
 exponent of damping function (d)      23.000
  
  atomic number, C_6 coefficients and vdW radii (atomic units)
     7      19.2532581       2.3999522
     1       2.7752444       1.7196508
 
 --------------------------------------------------------------
 nuclear repulsion energy                  =      12.034011116
 empirical dispersive energy correction    =      -0.000024631
 nuclear repulsion + dispersion correction =      12.033986485


         -----------------
         -S,T+V- integrals
         -----------------

 1e-integrals will be neglected if expon. factor < 0.159141E-09
 
   Difference densities algorithm switched on.
   The maximal number of linear combinations of
   difference densities is                    20 .

 DIIS switched on: error vector is FDS-SDF
 Max. Iterations for DIIS is     :   4
 DIIS matrix (see manual) 
    Scaling factor of diagonals  :  1.200
    threshold for scaling factor :  0.000

 scf convergence criterion : increment of total energy < .1000000D-05
                  and increment of one-electron energy < .1000000D-02

  MOs are in ASCII format !


 reading orbital data $scfmo  from file mos
 orbital characterization : expanded
 mo provided and orthogonalized by Cholesky decomposition

 DSCF restart information will be dumped onto file mos

          Overall gridpoints after grid construction =          1018
 
                                              current damping :  0.700
 ITERATION  ENERGY          1e-ENERGY        2e-ENERGY     NORM[dD(SAO)]  TOL
   1  -56.321625687730    -100.05712582     31.701513651    0.000D+00 0.159D-08
                            Exc =    -8.012520757666     N = 10.003235294    
          max. resid. norm for Fia-block=  2.201D-01 for orbital      1a1        
          max. resid. fock norm         =  9.780D-01 for orbital      4a1        
          Delta Eig. =    31.7311604326 eV 
 
                                              current damping :  0.650
 ITERATION  ENERGY          1e-ENERGY        2e-ENERGY     NORM[dD(SAO)]  TOL
   2  -56.442322902614    -99.703476633     31.227167246    0.264D+00 0.102D-08
                            Exc =    -7.980408159938     N = 10.002735015    
          Norm of current diis error: 0.54646    
          max. resid. norm for Fia-block=  1.122D-01 for orbital      1a1        
          max. resid. fock norm         =  1.182D-01 for orbital      1a1        
          Delta Eig. =    13.3206062401 eV 
 
                                              current damping :  0.600
 ITERATION  ENERGY          1e-ENERGY        2e-ENERGY     NORM[dD(SAO)]  TOL
   3  -56.481588386203    -99.826880323     31.311305451    0.979D-01 0.729D-09
                            Exc =    -8.022482226503     N = 10.002386406    
          Norm of current diis error: 0.25629    
          max. resid. norm for Fia-block=  4.543D-02 for orbital      1a1        
          max. resid. fock norm         =  4.956D-02 for orbital      4a1        
          Delta Eig. =     5.1573103595 eV 
 
                                              current damping :  0.650
 ITERATION  ENERGY          1e-ENERGY        2e-ENERGY     NORM[dD(SAO)]  TOL
   4  -56.492626565621    -99.743540091     31.216927041    0.636D-01 0.617D-09
                            Exc =    -8.028399804767     N = 10.002277461    
          Norm of current diis error: 0.10303    
          max. resid. norm for Fia-block=  1.943D-02 for orbital      2a1        
          max. resid. fock norm         =  2.253D-02 for orbital      4a1        
          Delta Eig. =     1.8811184306 eV 
 
                                              current damping :  0.700
 ITERATION  ENERGY          1e-ENERGY        2e-ENERGY     NORM[dD(SAO)]  TOL
   5  -56.494573199842    -99.804885530     31.276325845    0.148D-01 0.565D-09
                            Exc =    -8.043980469308     N = 10.002259239    
          Norm of current diis error: 0.43897E-01
          max. resid. norm for Fia-block=  7.592D-03 for orbital      3a1        
          max. resid. fock norm         =  8.430D-03 for orbital      4a1        
 mo-orthogonalization: Cholesky decomposition
          Delta Eig. =     0.7703632928 eV 
 
                                              current damping :  0.750
 ITERATION  ENERGY          1e-ENERGY        2e-ENERGY     NORM[dD(SAO)]  TOL
   6  -56.494963423735    -99.764201467     31.235251558    0.409D-02 0.537D-09
                            Exc =    -8.041793982144     N = 10.002264913    
          Norm of current diis error: 0.18071E-01
          max. resid. norm for Fia-block=  3.494D-03 for orbital      2a1        
          max. resid. fock norm         =  4.084D-03 for orbital      4a1        
          Delta Eig. =     0.2859641150 eV 
 
                                              current damping :  0.800
 ITERATION  ENERGY          1e-ENERGY        2e-ENERGY     NORM[dD(SAO)]  TOL
   7  -56.495027315506    -99.779654840     31.250641040    0.493D-03 0.522D-09
                            Exc =    -8.045051795795     N = 10.002267212    
          Norm of current diis error: 0.71987E-02
          max. resid. norm for Fia-block=  1.258D-03 for orbital      2a1        
          max. resid. fock norm         =  1.608D-03 for orbital      4a1        
          Delta Eig. =     0.1152374103 eV 
 
                                              current damping :  0.850
 ITERATION  ENERGY          1e-ENERGY        2e-ENERGY     NORM[dD(SAO)]  TOL
   8  -56.495039227379    -99.777389537     31.248363824    0.633D-04 0.511D-09
                            Exc =    -8.045279331403     N = 10.002269254    
          Norm of current diis error: 0.31703E-02
          max. resid. norm for Fia-block=  6.011D-04 for orbital      2a1        
          max. resid. fock norm         =  7.448D-04 for orbital      4a1        
          Delta Eig. =     0.0505780754 eV 

 ENERGY CONVERGED !

 Big Grid 
 e2xc, e2xcold =     -8.04559176     -8.04559176
          Overall gridpoints after grid construction =          3542
 
                                              current damping :  0.900
 ITERATION  ENERGY          1e-ENERGY        2e-ENERGY     NORM[dD(SAO)]  TOL
   9  -56.494428672389    -99.778083127     31.249667970    0.968D-05 0.501D-09
                            Exc =    -8.044978949473     N = 10.000020936    
          max. resid. norm for Fia-block=  2.740D-04 for orbital      2a1        
          max. resid. fock norm         =  3.356D-04 for orbital      4a1        

 convergence criteria satisfied after     9 iterations


   *************************************************************************
   ridft                                                                    
   *************************************************************************


                  ------------------------------------------ 
                 |  total energy      =    -56.49442867239  |
                  ------------------------------------------ 
                 :  kinetic energy    =     56.11514594908  :
                 :  potential energy  =   -112.60957462146  :
                 :  virial theorem    =      1.99328636943  :
                 :  wavefunction norm =      1.00000000000  :
                  .......................................... 


 <geterg> : there is no data group $energy 


 <skperg> : $end is missing 


 orbitals $scfmo  will be written to file mos

    irrep                  1a1         2a1         3a1         4a1         5a1  
 eigenvalues H        -13.96837    -0.76651    -0.20102     0.04253     0.67336
            eV        -380.1017    -20.8579     -5.4700      1.1572     18.3231
 occupation              2.0000      2.0000      2.0000 

    irrep                  6a1         7a1         8a1  
 eigenvalues H          0.69642     0.90569     2.22993
            eV          18.9506     24.6452     60.6799

    irrep                  1e          2e          3e          4e          5e   
 eigenvalues H         -0.41019     0.12579     0.49878     0.84018     2.02288
            eV         -11.1620      3.4230     13.5725     22.8626     55.0458
 occupation          2 * 2.0000 

    irrep                  6e   
 eigenvalues H          2.55164
            eV          69.4342
 
 
 
 
 ==============================================================================
                           electrostatic moments
 ==============================================================================

 reference point for electrostatic moments:    0.00000   0.00000   0.00000

 
              nuc           elec       ->  total
 ------------------------------------------------------------------------------
                          charge      
 ------------------------------------------------------------------------------
          10.000000     -10.000000      -0.000000
 
 ------------------------------------------------------------------------------
                       dipole moment  
 ------------------------------------------------------------------------------
   x      -0.000000       0.000000      -0.000000
   y       0.000000       0.000000       0.000000
   z       3.273690      -4.010956      -0.737265
 
   | dipole moment | =     0.7373 a.u. =     1.8739 debye 
 
 ------------------------------------------------------------------------------
                     quadrupole moment
 ------------------------------------------------------------------------------
  xx       4.625961      -9.223864      -4.597903
  yy       4.625961      -9.223864      -4.597903
  zz       2.183103      -9.133091      -6.949988
  xy       0.000000       0.000000       0.000000
  xz       0.000000      -0.000000       0.000000
  yz      -0.000000      -0.000000      -0.000000
 
     1/3  trace=      -5.381932
     anisotropy=       2.352085
 
 ==============================================================================
 


    ------------------------------------------------------------------------
         total  cpu-time :   0.05 seconds
         total wall-time :   0.05 seconds
    ------------------------------------------------------------------------

   ****  dscf : all done  ****


    2021-06-10 14:04:10.266 

