 operating system is UNIX !

 riper (fedora) : TURBOMOLE V7.3.1 () 25 Feb 2019 at 10:12:05
 Copyright (C) 2019 TURBOMOLE GmbH, Karlsruhe


    2021-12-28 15:25:26.354 

 Number of MKL threads:      1

   *************************************************************************
   dscf                                                                     
   *************************************************************************



              assign orbital basis set names as defaults
              read basis sets from /home/davidwaroquiers/Softwares/Turbomole/evaluation_license/turbolinux731/jbasen/
              (basis sets have been saved in file auxbasis)
    
    *************************************************************************
    *************************************************************************
    ***            _            _                   _     _               ***
    ***           | |_ _  _ _ _| |__  ___ _ __  ___| |___( )___           ***
    ***           |  _| || | '_| '_ \/ _ \ '  \/ _ \ / -_)/(_-<           ***
    ***            \__|\_,_|_| |_.__/\___/_|_|_\___/_\___| /__/           ***
    ***                      ___   ___                                    ***
    ***             //   ) )    / /    //   ) ) //   / /  //   ) )        ***
    ***            //___/ /    / /    //___/ / //____    //___/ /         ***
    ***           / ___ (     / /    / ____ / / ____    / ___ (           ***
    ***          //   | |    / /    //       //        //   | |           ***
    ***         //    | | __/ /___ //       //____/ / //    | |           ***
    ***                                                                   ***
    *************************************************************************
    *************************************************************************
    *************************** PROGRAM RIPER *******************************
    ****** Density Functional Theory with periodic boundary conditions ******
    ******                                                             ******
    ****** Developed by the groups in Jena   (M. Sierka)               ******
    ******                        and Munich (A. Burow)                ******
    *************************************************************************
    
    
                               References:                                  
    
    (1) General implementation:                                             
        R. Lazarski, A. M. Burow, M. Sierka                                 
        Density Functional Theory for Molecular and Periodic Systems Using  
        Density Fitting and Continuous Fast Multipole Methods               
        J. Chem. Theory Comput. 2015, 11, 3029-3041                         
        R. Lazarski, A. M. Burow, L. Grajciar, M. Sierka                    
        Density Functional Theory for Molecular and Periodic Systems Using  
        Density Fitting and Continuous Fast Multipole Methods: Analytical   
        Gradients                                                           
        J. Comput. Chem. 2016, 57, 2518–2526                                
    (2) DFT implementation:                                                 
        A. M. Burow, M. Sierka                                              
        Linear Scaling Hierarchical Integration Scheme For the              
        Exchange-Correlation Term in Molecular and Periodic Systems         
        J. Chem. Theory Comput. 2011, 7, 3097-3104                          
    (3) RI/DF approximation:                                                
        A. M. Burow, M. Sierka, F. Mohamed                                  
        Resolution of Identity Approximation for the Coulomb Term in        
        Molecular and Periodic Systems                                      
        J. Chem. Phys. 2009, 131, 214101/1-214101/6                         
    (4) Low-Memory Iterative Density Fitting (LMIDF) method:                
        L. Grajciar                                                         
        Low-Memory Iterative Density Fitting                                
        J. Comput. Chem. 2015, 36, 1521-1535                                
    


              +--------------------------------------------------+
              | Atomic coordinate, charge and isotop information |
              +--------------------------------------------------+

                    atomic coordinates            atom    charge  isotop
          0.94486306    0.50000000    0.50000000    h      1.000     0
          2.83458919    0.50000000    0.50000000    h      1.000     0
 
       center of nuclear mass  :    1.88972612    0.50000000    0.50000000
       center of nuclear charge:    1.88972612    0.50000000    0.50000000


              +--------------------------------------------------+
              | Periodic system found: PBC structure information |
              +--------------------------------------------------+

                           Cell parameters (au,deg.)
   +-------------------------------------------------------------------------
   |      |a|                                                                |
   +-------------------------------------------------------------------------
       3.77945225
   +-------------------------------------------------------------------------

       Shortest interatomic distance (bohr):           1.8897

       Periodicity in 1 dimensions

       Direct space cell vectors (au):
               a      3.77945225      0.00000000      0.00000000

       Reciprocal space cell vectors (au):
               a      1.66245924     -0.00000000     -0.00000000

              +--------------------------------------------------+
              |        Fractional crystal coordinates            |
              +--------------------------------------------------+

                atom            fractional coordinates
                  h     0.25000000    0.50000000    0.50000000
                  h     0.75000000    0.50000000    0.50000000

   * BASIS SET information:

              +--------------------------------------------------+
              |               basis set information              |
              +--------------------------------------------------+

              we will work with the 1s 3p 5d 7f 9g ... basis set
              ...i.e. with spherical basis functions...

   type   atoms  prim   cont   basis
   ---------------------------------------------------------------------------
    h        2      4      2   def-SV(P)   [2s|4s]
   ---------------------------------------------------------------------------
   total:    2      8      4
   ---------------------------------------------------------------------------

   total number of primitive shells          :    4
   total number of contracted shells         :    4
   total number of cartesian basis functions :    4
   total number of SCF-basis functions       :    4


   * AUXILIARY RI-J BASIS SET information:

              +--------------------------------------------------+
              |               basis set information              |
              +--------------------------------------------------+

              we will work with the 1s 3p 5d 7f 9g ... basis set
              ...i.e. with spherical basis functions...

   type   atoms  prim   cont   basis
   ---------------------------------------------------------------------------
    h        2     10      5   def-SV(P)   [2s1p|4s2p]
   ---------------------------------------------------------------------------
   total:    2     20     10
   ---------------------------------------------------------------------------

   total number of primitive shells          :    6
   total number of contracted shells         :    6
   total number of cartesian basis functions :   10
   total number of SCF-basis functions       :   10

               
              +--------------------------------------------------+
              |       Summary of SCF and related options         |
              +--------------------------------------------------+
               
       Energy and gradient calculation 
       Translation/rotation projected out of the gradient vector 
       Threshold for integrals neglect (differential overlap):    0.3342E-09
       Diagonalization of overlap matrices 
       Threshold for neglect of eigenvalues of overlap matrices:   0.1000E-05
       Diagonalization method set to:                                2
       Maximum number of SCF iterations included in the DIIS:        4
       Automatic orbital shift for HOMO-LUMO gap below:           0.1000E+00

       Fractional occupation numbers with Gaussian smearing 
         width of the smearing:                                   0.1000E-01
               
              +--------------------------------------------------+
              |                 K-POINT MESH                     |
              +--------------------------------------------------+
               
       Total number of k points used for density integration:      4
       Number of symmetry distinct k points used:                  2

       Reciprocal space cell vector (au):
               a      1.66245924     -0.00000000     -0.00000000
       Number of k-points along this vector:     4
       Fractional coordinates:
         -0.3750  -0.1250   0.1250   0.3750
               
              +--------------------------------------------------+
              |      SCREENING OF BASIS FUNCTION PRODUCTS        |
              +--------------------------------------------------+
               
         Threshold for shell products neglect:          0.3E-09
         Tolerance for shell products extents:          0.1E-07
         Number of {mu,nu,L} shell products:                 82
         Number of primitive basis function products:       186
        
               
              +--------------------------------------------------+
              |             INITIAL ORBITALS/BANDS               |
              +--------------------------------------------------+
               

 reading orbital data $scfmo  from file mos
 orbital characterization : expanded

  Diagonalization of the overlap matrix requested 
    Threshold for eigenvalues:    0.1000E-05
    Total number of vectors:           4
    Largest eigenvalue:          0.5087E+01
    - for the k-point:                1
    Smallest eigenvalue:         0.4503E-04
    - for the k-point:                1
    Largest number of vectors:        4
    - for the k-point:                1
    Smallest number of vectors:       4
    - for the k-point:                1

  BANDS have been orthonormalized
               
              +--------------------------------------------------+
              |           DENSITY FUNCTIONAL THEORY              |
              +--------------------------------------------------+
               
       DFT calculation will be performed
        
 B-P86 functional
 exchange:    LDA + Becke (B88)
 correlation: LDA (VWN) + Perdew (P86)
               
              +--------------------------------------------------+
              |              NUMERICAL INTEGRATION               |
              +--------------------------------------------------+
               
       Will use smaller grid during SCF iterations and a grid
       of size 3 for the last iteration.
        
       Integration of exchange-correlation term is performed with
       Stratmann/Scuseria renormalization.
       Specified sharpness parameter is .64000D+00.
       Calculation of weight derivatives is switched OFF
       Maximum number of grid points per atom:             5340
       Total number of grid points of the system:          9668
               
              +--------------------------------------------------+
              |        CONTINUOUS FAST MULTIPOLE METHOD          |
              +--------------------------------------------------+
               
   Continuous Fast Multipole Method for the Coulomb term
     order of multipole expansions:         20
     well-separateness criterion:         3.0000
     local multipole expansions switched on
     local expansions incremented by:        2
     total number of centers:               90
     number of octree levels:                3
     number of boxes at all levels:          5
     max. number of NF boxes per box:        2
     length of the lowest level box:     20.2579
     length of the highest level box:    81.0317
 
   Periodic boundary conditions - crystal field construction:
     extent of the nuclei:              0.9449
     extent of electron density:       18.9160
     extent of auxiliary density:       8.8476
     final crystal field radius:       42.5432
     number of lattice vectors:           23
 
   RI core memory information
     core memory allocated for RI integrals:           1 MB
     maximum memory needed for RI integrals:           1 MB
 
         ------------------ Fractional Occupations ----------------
           Fermi level           =             -0.5746133979
           Electrons(/UC)        =              2.0000000000
           Current HOMO-LUMO gap =     0.26325E+01
         ----------------------------------------------------------
               
              +--------------------------------------------------+
              |                SCF iteration    1                |
              +--------------------------------------------------+
  
          Number of electrons from P*S  =     2.00000000000000
           
          Numerical integration of the XC term:
          Number of electrons           =     2.00000041814216
           
         ------------------ Fractional Occupations ----------------
           Fermi level           =             -0.4239139540
           Electrons(/UC)        =              2.0000000000
           Current HOMO-LUMO gap =     0.12447E+01
         ----------------------------------------------------------
          SCF energy change             = -1.315D+00
          Free energy change            = -1.315D+00
          new damping factor            =      0.700
  
              +--------------------------------------------------+
              | KINETIC ENERGY       =           0.5286647727    |
              | COULOMB ENERGY       =          -1.2492006755    |
              | EXCH. & CORR. ENERGY =          -0.5943184914    |
              |==================================================|
              | TOTAL ENERGY         =          -1.3148543942    |
              | T*S                  =          -0.0000000000    |
              | FREE  ENERGY         =          -1.3148543942    |
              | ENERGY (sigma->0)    =          -1.3148543942    |
              +--------------------------------------------------+
  
               
              +--------------------------------------------------+
              |                SCF iteration    2                |
              +--------------------------------------------------+
  
          Number of electrons from P*S  =     2.00000000000000
           
          Numerical integration of the XC term:
          Number of electrons           =     1.99999934092846
           
          Norm of current diis error    =  3.151D-01
         ------------------ Fractional Occupations ----------------
           Fermi level           =             -0.2945431373
           Electrons(/UC)        =              2.0000000000
           Current HOMO-LUMO gap =     0.68813E+00
         ----------------------------------------------------------
          RMS of difference density     =  2.369D-02
          SCF energy change             =  1.972D-01
          Free energy change            =  1.972D-01
          new damping factor            =      0.750
  
              +--------------------------------------------------+
              | KINETIC ENERGY       =           0.9888698645    |
              | COULOMB ENERGY       =          -1.4478860459    |
              | EXCH. & CORR. ENERGY =          -0.6586301368    |
              |==================================================|
              | TOTAL ENERGY         =          -1.1176463182    |
              | T*S                  =          -0.0000000000    |
              | FREE  ENERGY         =          -1.1176463182    |
              | ENERGY (sigma->0)    =          -1.1176463182    |
              +--------------------------------------------------+
  
               
              +--------------------------------------------------+
              |                SCF iteration    3                |
              +--------------------------------------------------+
  
          Number of electrons from P*S  =     2.00000000000000
           
          Numerical integration of the XC term:
          Number of electrons           =     1.99999922070543
           
          Norm of current diis error    =  1.910D-01
         ------------------ Fractional Occupations ----------------
           Fermi level           =             -0.2479365525
           Electrons(/UC)        =              2.0000000000
           Current HOMO-LUMO gap =     0.48091E+00
         ----------------------------------------------------------
          RMS of difference density     =  2.952D-03
          SCF energy change             = -2.245D-02
          Free energy change            = -2.245D-02
          new damping factor            =      0.700
  
              +--------------------------------------------------+
              | KINETIC ENERGY       =           1.0049936918    |
              | COULOMB ENERGY       =          -1.4772240978    |
              | EXCH. & CORR. ENERGY =          -0.6678637398    |
              |==================================================|
              | TOTAL ENERGY         =          -1.1400941458    |
              | T*S                  =          -0.0000000000    |
              | FREE  ENERGY         =          -1.1400941458    |
              | ENERGY (sigma->0)    =          -1.1400941458    |
              +--------------------------------------------------+
  
               
              +--------------------------------------------------+
              |                SCF iteration    4                |
              +--------------------------------------------------+
  
          Number of electrons from P*S  =     2.00000000000000
           
          Numerical integration of the XC term:
          Number of electrons           =     1.99999913273883
           
          Norm of current diis error    =  1.083D-01
         ------------------ Fractional Occupations ----------------
           Fermi level           =             -0.2385603634
           Electrons(/UC)        =              2.0000000000
           Current HOMO-LUMO gap =     0.39800E+00
         ----------------------------------------------------------
          RMS of difference density     =  3.911D-03
          SCF energy change             = -1.284D-02
          Free energy change            = -1.284D-02
          new damping factor            =      0.600
  
              +--------------------------------------------------+
              | KINETIC ENERGY       =           1.0197127444    |
              | COULOMB ENERGY       =          -1.4982985427    |
              | EXCH. & CORR. ENERGY =          -0.6743469054    |
              |==================================================|
              | TOTAL ENERGY         =          -1.1529327038    |
              | T*S                  =          -0.0000000000    |
              | FREE  ENERGY         =          -1.1529327038    |
              | ENERGY (sigma->0)    =          -1.1529327038    |
              +--------------------------------------------------+
  
               
              +--------------------------------------------------+
              |                SCF iteration    5                |
              +--------------------------------------------------+
  
          Number of electrons from P*S  =     2.00000000000000
           
          Numerical integration of the XC term:
          Number of electrons           =     1.99999906269364
           
          Norm of current diis error    =  5.502D-02
         ------------------ Fractional Occupations ----------------
           Fermi level           =             -0.2447242855
           Electrons(/UC)        =              2.0000000000
           Current HOMO-LUMO gap =     0.36490E+00
         ----------------------------------------------------------
          RMS of difference density     =  3.277D-03
          SCF energy change             = -5.067D-03
          Free energy change            = -5.067D-03
          new damping factor            =      0.500
  
              +--------------------------------------------------+
              | KINETIC ENERGY       =           1.0352727266    |
              | COULOMB ENERGY       =          -1.5137227707    |
              | EXCH. & CORR. ENERGY =          -0.6795493784    |
              |==================================================|
              | TOTAL ENERGY         =          -1.1579994225    |
              | T*S                  =          -0.0000000000    |
              | FREE  ENERGY         =          -1.1579994225    |
              | ENERGY (sigma->0)    =          -1.1579994225    |
              +--------------------------------------------------+
  
               
              +--------------------------------------------------+
              |                SCF iteration    6                |
              +--------------------------------------------------+
  
          Number of electrons from P*S  =     2.00000000000000
           
          Numerical integration of the XC term:
          Number of electrons           =     1.99999900663256
           
          Norm of current diis error    =  2.023D-02
         ------------------ Fractional Occupations ----------------
           Fermi level           =             -0.2462212069
           Electrons(/UC)        =              2.0000000000
           Current HOMO-LUMO gap =     0.35219E+00
         ----------------------------------------------------------
          RMS of difference density     =  2.014D-03
          SCF energy change             = -1.312D-03
          Free energy change            = -1.312D-03
          new damping factor            =      0.400
  
              +--------------------------------------------------+
              | KINETIC ENERGY       =           1.0497765505    |
              | COULOMB ENERGY       =          -1.5252865727    |
              | EXCH. & CORR. ENERGY =          -0.6838014928    |
              |==================================================|
              | TOTAL ENERGY         =          -1.1593115150    |
              | T*S                  =          -0.0000000000    |
              | FREE  ENERGY         =          -1.1593115150    |
              | ENERGY (sigma->0)    =          -1.1593115150    |
              +--------------------------------------------------+
  
               
              +--------------------------------------------------+
              |                SCF iteration    7                |
              +--------------------------------------------------+
  
          Number of electrons from P*S  =     2.00000000000000
           
          Numerical integration of the XC term:
          Number of electrons           =     1.99999898546220
           
          Norm of current diis error    =  6.647D-03
         ------------------ Fractional Occupations ----------------
           Fermi level           =             -0.2467135598
           Electrons(/UC)        =              2.0000000000
           Current HOMO-LUMO gap =     0.34772E+00
         ----------------------------------------------------------
          RMS of difference density     =  9.255D-04
          SCF energy change             = -2.175D-04
          Free energy change            = -2.175D-04
          new damping factor            =      0.300
  
              +--------------------------------------------------+
              | KINETIC ENERGY       =           1.0555138032    |
              | COULOMB ENERGY       =          -1.5296063709    |
              | EXCH. & CORR. ENERGY =          -0.6854364244    |
              |==================================================|
              | TOTAL ENERGY         =          -1.1595289921    |
              | T*S                  =          -0.0000000000    |
              | FREE  ENERGY         =          -1.1595289921    |
              | ENERGY (sigma->0)    =          -1.1595289921    |
              +--------------------------------------------------+
  
               
              +--------------------------------------------------+
              |                SCF iteration    8                |
              +--------------------------------------------------+
  
          Number of electrons from P*S  =     2.00000000000000
           
          Numerical integration of the XC term:
          Number of electrons           =     1.99999897817357
           
          Norm of current diis error    =  1.882D-03
         ------------------ Fractional Occupations ----------------
           Fermi level           =             -0.2468976278
           Electrons(/UC)        =              2.0000000000
           Current HOMO-LUMO gap =     0.34636E+00
         ----------------------------------------------------------
          RMS of difference density     =  3.581D-04
          SCF energy change             = -2.616D-05
          Free energy change            = -2.616D-05
          new damping factor            =      0.200
  
              +--------------------------------------------------+
              | KINETIC ENERGY       =           1.0575342589    |
              | COULOMB ENERGY       =          -1.5310849629    |
              | EXCH. & CORR. ENERGY =          -0.6860044509    |
              |==================================================|
              | TOTAL ENERGY         =          -1.1595551549    |
              | T*S                  =          -0.0000000000    |
              | FREE  ENERGY         =          -1.1595551549    |
              | ENERGY (sigma->0)    =          -1.1595551549    |
              +--------------------------------------------------+
  
               
              +--------------------------------------------------+
              |                SCF iteration    9                |
              +--------------------------------------------------+
  
          Number of electrons from P*S  =     2.00000000000000
           
          Numerical integration of the XC term:
          Number of electrons           =     1.99999897597174
           
          Norm of current diis error    =  4.294D-04
         ------------------ Fractional Occupations ----------------
           Fermi level           =             -0.2467283520
           Electrons(/UC)        =              2.0000000000
           Current HOMO-LUMO gap =     0.34602E+00
         ----------------------------------------------------------
          RMS of difference density     =  1.166D-04
          SCF energy change             = -2.219D-06
          Free energy change            = -2.219D-06
          new damping factor            =      0.100
  
              +--------------------------------------------------+
              | KINETIC ENERGY       =           1.0581499463    |
              | COULOMB ENERGY       =          -1.5315306439    |
              | EXCH. & CORR. ENERGY =          -0.6861766761    |
              |==================================================|
              | TOTAL ENERGY         =          -1.1595573737    |
              | T*S                  =          -0.0000000000    |
              | FREE  ENERGY         =          -1.1595573737    |
              | ENERGY (sigma->0)    =          -1.1595573737    |
              +--------------------------------------------------+
  
               
              +--------------------------------------------------+
              |                SCF iteration   10                |
              +--------------------------------------------------+
  
          Number of electrons from P*S  =     2.00000000000000
           
          Numerical integration of the XC term:
          Number of electrons           =     1.99999897543005
           
          Norm of current diis error    =  6.968D-05
         ------------------ Fractional Occupations ----------------
           Fermi level           =             -0.2468455649
           Electrons(/UC)        =              2.0000000000
           Current HOMO-LUMO gap =     0.34596E+00
         ----------------------------------------------------------
          RMS of difference density     =  3.070D-05
          SCF energy change             = -1.203D-07
          Free energy change            = -1.203D-07
          new damping factor            =      0.150
  
              +--------------------------------------------------+
              | KINETIC ENERGY       =           1.0583018554    |
              | COULOMB ENERGY       =          -1.5316402402    |
              | EXCH. & CORR. ENERGY =          -0.6862191092    |
              |==================================================|
              | TOTAL ENERGY         =          -1.1595574940    |
              | T*S                  =          -0.0000000000    |
              | FREE  ENERGY         =          -1.1595574940    |
              | ENERGY (sigma->0)    =          -1.1595574940    |
              +--------------------------------------------------+
  
               
              +--------------------------------------------------+
              |       SCF converged - final SCF iteration        |
              +--------------------------------------------------+
  
          Number of electrons from P*S  =     2.00000000000000
           
          Numerical integration of the XC term:
          Number of electrons           =     1.99999897533574
           
  
              SCF converged within     10 cycles.
  
              +--------------------------------------------------+
              |                FINAL ENERGIES                    |
              +--------------------------------------------------+
              | KINETIC ENERGY       =           1.0583283470    |
              | COULOMB ENERGY       =          -1.5316593353    |
              | EXCH. & CORR. ENERGY =          -0.6862265092    |
              |==================================================|
              | TOTAL ENERGY         =          -1.1595574974    |
              | T*S                  =          -0.0000000000    |
              | FREE  ENERGY         =          -1.1595574974    |
              | ENERGY (sigma->0)    =          -1.1595574974    |
              +--------------------------------------------------+
  
  
         ------------------ Fermi Level Statistics ----------------
             Lowest unoccupied band =        0.041555
             Highest occupied band  =       -0.304402
             Band gap               =        0.345957
             Band gap middle        =       -0.131424
             Fermi level            =       -0.246846
         ----------------------------------------------------------

 <geterg> : there is no data group $energy 


 <skperg> : $end is missing 


 orbitals $scfmo  will be written to file mos

     Translation projected out of the gradient vector


 <getgrd> : data group $grad  is missing 

   ***  cartesian gradients written onto <gradient>  ***

    ------------------------------------------------------------------------
    RIPER profiling                cpu                    wall         ratio
    ------------------------------------------------------------------------
    module                         sec     %               sec     %
    ------------------------------------------------------------------------
    RIPER                         0.3   99.98            0.3  100.00   1.0
    Preliminaries                 0.0    3.71            0.0    3.65   1.0
    BANDS init                    0.0    0.27            0.0    0.33   0.8
    DFT grid setup                0.0    3.77            0.0    3.65   1.0
    DFT atomic grids              0.0    0.31            0.0    0.33   0.9
    DFT system grid               0.0    3.06            0.0    2.99   1.0
    DFT octree                    0.0    0.37            0.0    0.33   1.1
    CFMM preliminaries            0.0    0.61            0.0    0.66   0.9
    RI core setup                 0.0    0.09            0.0    0.33   0.3
    PQ matrix                     0.0    0.44            0.0    0.33   1.3
    PQ CFF                        0.0    0.40            0.0    0.33   1.2
    SCF                           0.2   82.51            0.2   82.72   1.0
    nuclear energy                0.0    0.18            0.0    0.33   0.5
    jmat nuclear                  0.0    0.20            0.0    0.00   0.6
    FON                           0.0    0.17            0.0    0.00   0.5
    SCF looop                     0.2   81.47            0.2   81.73   1.0
    XC matrix                     0.2   67.13            0.2   66.78   1.0
    Coulomb total                 0.0   12.54            0.0   12.62   1.0
    gamma vector                  0.0    5.42            0.0    5.65   0.9
    gamma CFF                     0.0    1.19            0.0    1.00   1.2
    gamma CNF FF                  0.0    2.89            0.0    3.65   0.8
    gamma CNF FF mom              0.0    0.80            0.0    1.00   0.8
    gamma CNF FF p. 1             0.0    0.59            0.0    1.33   0.4
    gamma CNF FF p. 2             0.0    0.86            0.0    0.33   2.5
    gamma CNF FF p. 3             0.0    0.44            0.0    0.33   1.3
    gamma CNF NF                  0.0    1.25            0.0    0.66   1.8
    gamma CNF NF p. 1             0.0    0.63            0.0    0.33   1.9
    gamma CNF NF p. 2             0.0    0.55            0.0    0.33   1.6
    Coulomb matrix                0.0    7.01            0.0    6.64   1.0
    jmat CFF                      0.0    1.25            0.0    1.33   0.9
    jmat CNF FF                   0.0    2.82            0.0    2.66   1.0
    jmat CNF FF mom               0.0    0.13            0.0    0.00   0.4
    jmat CNF FF p. 1              0.0    0.58            0.0    0.33   1.7
    jmat CNF FF p. 2              0.0    0.89            0.0    1.00   0.9
    jmat CNF FF p. 3              0.0    0.43            0.0    0.33   1.3
    jmat CNF NF                   0.0    0.23            0.0    0.00   0.7
    elec. en. aux                 0.0    2.60            0.0    2.66   1.0
    DIIS                          0.0    0.23            0.0    0.33   0.7
    SCF solve                     0.0    0.18            0.0    0.33   0.5
    MO dump                       0.0    0.92            0.0    1.66   0.5
    mos dump                      0.0    0.24            0.0    0.33   0.7
    Gradient                      0.0    8.60            0.0    8.64   1.0
    grad XC                       0.0    5.90            0.0    5.98   1.0
    grad Coulomb                  0.0    2.54            0.0    2.66   0.9
    grad CFF                      0.0    0.39            0.0    0.33   1.2
    CFF drho                      0.0    0.28            0.0    0.33   0.8
    grad FF CNF                   0.0    0.93            0.0    1.00   0.9
    CNF FF dnuc                   0.0    0.23            0.0    0.33   0.7
    CNF FF daux                   0.0    0.25            0.0    0.33   0.7
    CNF FF drho                   0.0    0.44            0.0    0.33   1.3
    grad NF CNF                   0.0    1.20            0.0    1.33   0.9
    CNF NF drhoaux                0.0    0.66            0.0    0.66   1.0
    CNF NF drhonuc                0.0    0.45            0.0    0.66   0.7
    ------------------------------------------------------------------------
    sum                           1.2  411.58            1.2  411.96   1.0
    ------------------------------------------------------------------------


    ------------------------------------------------------------------------
         total  cpu-time :   0.30 seconds
         total wall-time :   0.30 seconds
    ------------------------------------------------------------------------

   ****  riper : all done  ****


    2021-12-28 15:25:26.651 

