
 define (localhost.localdomain) : TURBOMOLE V7.2 ( 21454 ) 4 Oct 2017 at 12:48:15
 Copyright (C) 2017 TURBOMOLE GmbH, Karlsruhe


    2021-05-21 11:58:21.592 

                    HOST NAME = localhost.localdomain
             OPERATING SYSTEM = unix
   STANDARD BASIS SET LIBRARY = /run/media/waroquiers/2A089C5C089C28B9/Users/waroquiers/TURBOMOLE_EXECUTABLES/turbolinux722/TURBOMOLE//basen/
  ALTERNATE BASIS SET LIBRARY = /run/media/waroquiers/2A089C5C089C28B9/Users/waroquiers/TURBOMOLE_EXECUTABLES/turbolinux722/TURBOMOLE//basold/
 LIBRARY FOR RI-J  BASIS SETS = /run/media/waroquiers/2A089C5C089C28B9/Users/waroquiers/TURBOMOLE_EXECUTABLES/turbolinux722/TURBOMOLE//jbasen/
 LIBRARY FOR RI-JK BASIS SETS = /run/media/waroquiers/2A089C5C089C28B9/Users/waroquiers/TURBOMOLE_EXECUTABLES/turbolinux722/TURBOMOLE//jkbasen/
 LIBRARY FOR RIMP2/RICC2 SETS = /run/media/waroquiers/2A089C5C089C28B9/Users/waroquiers/TURBOMOLE_EXECUTABLES/turbolinux722/TURBOMOLE//cbasen/
 LIBRARY FOR RIR12 BASIS SETS = /run/media/waroquiers/2A089C5C089C28B9/Users/waroquiers/TURBOMOLE_EXECUTABLES/turbolinux722/TURBOMOLE//cabasen/
 LIBRARY FOR OEP   BASIS SETS = /run/media/waroquiers/2A089C5C089C28B9/Users/waroquiers/TURBOMOLE_EXECUTABLES/turbolinux722/TURBOMOLE//xbasen/
            STRUCTURE LIBRARY = /run/media/waroquiers/2A089C5C089C28B9/Users/waroquiers/TURBOMOLE_EXECUTABLES/turbolinux722/TURBOMOLE//structures/
 

 ***********************************************************
 *                                                         *
 *                       D E F I N E                       *
 *                                                         *
 *         TURBOMOLE'S  INTERACTIVE  INPUT  PROGRAM        *
 *                                                         *
 *  Quantum Chemistry Group       University of Karlsruhe  *
 *                                                         *
 ***********************************************************

qq
