 operating system is UNIX !

 dscf (ucl-laptop) : TURBOMOLE V7.3 ( 22118 ) 1 Jul 2018 at 20:38:15
 Copyright (C) 2018 TURBOMOLE GmbH, Karlsruhe


    2018-11-13 09:16:15.181 



                             d s c f - program

                   idea & directorship : reinhart ahlrichs
                   program development : marco haeser
                                         michael baer
                           dft version : oliver treutler


                          quantum chemistry group
                          universitaet  karlsruhe
                                  germany




                          References             
                                                 
          TURBOMOLE:                             
              R. Ahlrichs, M. Baer, M. Haeser, H. Horn, and
              C. Koelmel
              Electronic structure calculations on workstation
              computers: the program system TURBOMOLE
              Chem. Phys. Lett. 162: 165 (1989)
          Density Functional:                              
              O. Treutler and R. Ahlrichs                      
              Efficient Molecular Numerical Integration Schemes
              J. Chem. Phys. 102: 346 (1995)                   
          Parallel Version:                                
              Performance of parallel TURBOMOLE for Density    
              Functional Calculations                          
              M. v. Arnim and R. Ahlrichs                      
              J. Comp. Chem. 19: 1746 (1998)                   
                                         




              +--------------------------------------------------+
              | Atomic coordinate, charge and isotop information |
              +--------------------------------------------------+

                    atomic coordinates            atom    charge  isotop
          0.00000000    0.00000000   -0.72557892    o      8.000     0
          1.41713421    0.00000000    0.36278946    h      1.000     0
         -1.41713421    0.00000000    0.36278946    h      1.000     0
 
       center of nuclear mass  :    0.00000000    0.00000000   -0.60378908
       center of nuclear charge:    0.00000000    0.00000000   -0.50790525

   *************************************************************************
   dscf_escf                                                                
   *************************************************************************



              +--------------------------------------------------+
              |               basis set information              |
              +--------------------------------------------------+

              we will work with the 1s 3p 5d 7f 9g ... basis set
              ...i.e. with spherical basis functions...

   type   atoms  prim   cont   basis
   ---------------------------------------------------------------------------
    o        1     24     14   def-SV(P)   [3s2p1d|7s4p1d]
    h        2      4      2   def-SV(P)   [2s|4s]
   ---------------------------------------------------------------------------
   total:    3     32     18
   ---------------------------------------------------------------------------

   total number of primitive shells          :   16
   total number of contracted shells         :   10
   total number of cartesian basis functions :   19
   total number of SCF-basis functions       :   18


 integral neglect threshold       :  0.18E-08
 integral storage threshold THIZE :  0.10E-04
 integral storage threshold THIME :         5


 DENSITY CONVERGENCE CHECK SWITCHED ON !
 SCF CONVERGENCE IF RMS(delta[D]) <     0.1000000000E-06


 symmetry group of the molecule :   c2v

 the group has the following generators :
   c2(z)
   mirror plane sigma(xz)

    4 symmetry operations found

 there are 4 real representations :   a1   a2   b1   b2  

 maximum number of shells which are related by symmetry :  2


    mo occupation :
   irrep   mo's   occupied
    a1       9        3
    a2       1        0
    b1       5        1
    b2       3        1
 
 number of basis functions   :                     18
 number of occupied orbitals :                      5
 

 automatic virtual orbital shift switched on 
      shift if e(lumo)-e(homo) < 0.10000000    

  
           ------------------
           density functional
           ------------------
 B-P86 functional
 exchange:    LDA + Becke (B88)
 correlation: LDA (VWN) + Perdew (P86)

 iterations will be done with small grid
  
 spherical integration : Lebedev's spherical grid
 spherical gridsize    :                     3
    i.e. gridpoints    :                   302
 value for diffuse not defined
 radial integration    : Chebyshev 2nd kind (scaling 3)
 radial gridsize       :                     3
 integration cells     :                     2
 partition function    : becke
 partition sharpness   :                     3
  

          ------------------------
          nuclear repulsion energy  :   9.30715477358    
          ------------------------


         -----------------
         -S,T+V- integrals
         -----------------

 1e-integrals will be neglected if expon. factor < 0.175893E-09
 
   Difference densities algorithm switched on.
   The maximal number of linear combinations of
   difference densities is                    20 .

 DIIS switched on: error vector is FDS-SDF
 Max. Iterations for DIIS is     :   4
 DIIS matrix (see manual) 
    Scaling factor of diagonals  :  1.200
    threshold for scaling factor :  0.000

 scf convergence criterion : increment of total energy < .1000000D-05
                  and increment of one-electron energy < .1000000D-02

  MOs are in ASCII format !


 reading orbital data $scfmo  from file mos
 orbital characterization : expanded
 mo provided and orthogonalized by Cholesky decomposition

 DSCF restart information will be dumped onto file mos

          Overall gridpoints after grid construction =          1098
 
                                              current damping :  0.700
 ITERATION  ENERGY          1e-ENERGY        2e-ENERGY     RMS[dD(SAO)]   TOL
   1  -76.143808666911    -124.43866883     38.987705388    0.000D+00 0.175D-08
                            Exc =    -9.503661308938     N = 9.9990627195    
          max. resid. norm for Fia-block=  2.533D-01 for orbital      3a1        
          max. resid. fock norm         =  1.169D+00 for orbital      5a1        
          Delta Eig. =    36.0136670175 eV 
 
                                              current damping :  0.650
 ITERATION  ENERGY          1e-ENERGY        2e-ENERGY     RMS[dD(SAO)]   TOL
   2  -76.300046946030    -123.25452671     37.647324991    0.553D-01 0.114D-08
                            Exc =    -9.334274135829     N = 9.9993012773    
          Norm of current diis error: 0.44407    
          max. resid. norm for Fia-block=  1.252D-01 for orbital      1a1        
          max. resid. fock norm         =  1.288D-01 for orbital      4a1        
          Delta Eig. =    13.5096761690 eV 
 
                                              current damping :  0.600
 ITERATION  ENERGY          1e-ENERGY        2e-ENERGY     RMS[dD(SAO)]   TOL
   3  -76.332109920961    -123.42165872     37.782394022    0.367D-01 0.864D-09
                            Exc =    -9.374381979683     N = 9.9992996310    
          Norm of current diis error: 0.20474    
          max. resid. norm for Fia-block=  4.906D-02 for orbital      1a1        
          max. resid. fock norm         =  5.164D-02 for orbital      4a1        
          Delta Eig. =     5.1822567856 eV 
 
                                              current damping :  0.650
 ITERATION  ENERGY          1e-ENERGY        2e-ENERGY     RMS[dD(SAO)]   TOL
   4  -76.340965429794    -123.18622149     37.538101286    0.195D-01 0.733D-09
                            Exc =    -9.353121423393     N = 9.9993319882    
          Norm of current diis error: 0.71685E-01
          max. resid. norm for Fia-block=  1.904D-02 for orbital      1a1        
          max. resid. fock norm         =  2.229D-02 for orbital      4a1        
          Delta Eig. =     1.9210500699 eV 
 
                                              current damping :  0.700
 ITERATION  ENERGY          1e-ENERGY        2e-ENERGY     RMS[dD(SAO)]   TOL
   5  -76.342214940716    -123.25584122     37.606471503    0.807D-02 0.678D-09
                            Exc =    -9.367371377111     N = 9.9993296303    
          Norm of current diis error: 0.29491E-01
          max. resid. norm for Fia-block=  7.304D-03 for orbital      1a1        
          max. resid. fock norm         =  8.458D-03 for orbital      4a1        
 mo-orthogonalization: Cholesky decomposition
          Delta Eig. =     0.7190357922 eV 
 
                                              current damping :  0.750
 ITERATION  ENERGY          1e-ENERGY        2e-ENERGY     RMS[dD(SAO)]   TOL
   6  -76.342442666881    -123.22409578     37.574498343    0.336D-02 0.644D-09
                            Exc =    -9.364937957892     N = 9.9993356868    
          Norm of current diis error: 0.11204E-01
          max. resid. norm for Fia-block=  3.082D-03 for orbital      1a1        
          max. resid. fock norm         =  3.655D-03 for orbital      4a1        
          Delta Eig. =     0.2843512155 eV 
 
                                              current damping :  0.800
 ITERATION  ENERGY          1e-ENERGY        2e-ENERGY     RMS[dD(SAO)]   TOL
   7  -76.342476431038    -123.22953023     37.579899030    0.122D-02 0.622D-09
                            Exc =    -9.366409238362     N = 9.9993361572    
          Norm of current diis error: 0.47978E-02
          max. resid. norm for Fia-block=  1.297D-03 for orbital      1a1        
          max. resid. fock norm         =  1.537D-03 for orbital      4a1        
          Delta Eig. =     0.1167929946 eV 
 
                                              current damping :  0.850
 ITERATION  ENERGY          1e-ENERGY        2e-ENERGY     RMS[dD(SAO)]   TOL
   8  -76.342482792164    -123.22781568     37.578178111    0.558D-03 0.607D-09
                            Exc =    -9.366485111555     N = 9.9993368733    
          Norm of current diis error: 0.21047E-02
          max. resid. norm for Fia-block=  5.824D-04 for orbital      1a1        
          max. resid. fock norm         =  6.990D-04 for orbital      4a1        
          Delta Eig. =     0.0510506907 eV 
 
                                              current damping :  0.900
 ITERATION  ENERGY          1e-ENERGY        2e-ENERGY     RMS[dD(SAO)]   TOL
   9  -76.342483979186    -123.22863063     37.578991882    0.227D-03 0.592D-09
                            Exc =    -9.366726431406     N = 9.9993370078    
          Norm of current diis error: 0.97124E-03
          max. resid. norm for Fia-block=  2.633D-04 for orbital      1a1        
          max. resid. fock norm         =  3.132D-04 for orbital      4a1        
          Delta Eig. =     0.0226233313 eV 
 
                                              current damping :  0.950
 ITERATION  ENERGY          1e-ENERGY        2e-ENERGY     RMS[dD(SAO)]   TOL
  10  -76.342484236153    -123.22792141     37.578282403    0.113D-03 0.582D-09
                            Exc =    -9.366689672218     N = 9.9993371947    
          Norm of current diis error: 0.46066E-03
          max. resid. norm for Fia-block=  1.280D-04 for orbital      1a1        
          max. resid. fock norm         =  1.559D-04 for orbital      4a1        
 mo-orthogonalization: Cholesky decomposition
          Delta Eig. =     0.0105791997 eV 
 
                                              current damping :  1.000
 ITERATION  ENERGY          1e-ENERGY        2e-ENERGY     RMS[dD(SAO)]   TOL
  11  -76.342484288924    -123.22836116     37.578722094    0.463D-04 0.560D-09
                            Exc =    -9.366775075571     N = 9.9993371902    
          Norm of current diis error: 0.22344E-03
          max. resid. norm for Fia-block=  6.054D-05 for orbital      1a1        
          max. resid. fock norm         =  7.223D-05 for orbital      4a1        
          Delta Eig. =     0.0051033598 eV 
 
                                              current damping :  1.050
 ITERATION  ENERGY          1e-ENERGY        2e-ENERGY     RMS[dD(SAO)]   TOL
  12  -76.342484303148    -123.22818287     37.578543791    0.250D-04 0.546D-09
                            Exc =    -9.366763635956     N = 9.9993372344    
          Norm of current diis error: 0.10849E-03
          max. resid. norm for Fia-block=  3.083D-05 for orbital      1a1        
          max. resid. fock norm         =  3.711D-05 for orbital      4a1        
          Delta Eig. =     0.0024207316 eV 

 ENERGY & DENSITY CONVERGED !

 Big Grid 
 e2xc, e2xcold =     -9.36677579     -9.36677579
          Overall gridpoints after grid construction =          3891
 
                                              current damping :  1.100
 ITERATION  ENERGY          1e-ENERGY        2e-ENERGY     RMS[dD(SAO)]   TOL
  13  -76.342762157843    -123.22822911     37.578312179    0.106D-04 0.529D-09
                            Exc =    -9.367053639482     N = 9.9999983776    
          max. resid. norm for Fia-block=  1.560D-05 for orbital      1a1        
          max. resid. fock norm         =  1.864D-05 for orbital      4a1        

 convergence criteria satisfied after    13 iterations


   *************************************************************************
   dscf_escf                                                                
   *************************************************************************


                  ------------------------------------------ 
                 |  total energy      =    -76.34276215784  |
                  ------------------------------------------ 
                 :  kinetic energy    =     75.98641545802  :
                 :  potential energy  =   -152.32917761586  :
                 :  virial theorem    =      1.99533227919  :
                 :  wavefunction norm =      1.00000000000  :
                  .......................................... 


 <geterg> : there is no data group $energy 


 <skperg> : $end is missing 


 orbitals $scfmo  will be written to file mos

    irrep                  1a1         2a1         3a1         4a1         5a1  
 eigenvalues H        -18.75056    -0.90865    -0.30996     0.03390     0.63293
            eV        -510.2328    -24.7258     -8.4345      0.9226     17.2231
 occupation              2.0000      2.0000      2.0000 

    irrep                  6a1         7a1         8a1         9a1  
 eigenvalues H          0.87620     1.10900     2.47781     2.86046
            eV          23.8427     30.1776     67.4251     77.8377

    irrep                  1a2  
 eigenvalues H          2.49480
            eV          67.8876

    irrep                  1b1         2b1         3b1         4b1         5b1  
 eigenvalues H         -0.47816     0.11368     0.54412     1.01988     3.00641
            eV         -13.0114      3.0935     14.8065     27.7527     81.8092
 occupation              2.0000 

    irrep                  1b2         2b2         3b2  
 eigenvalues H         -0.23517     0.86116     2.52749
            eV          -6.3994     23.4335     68.7770
 occupation              2.0000 
 
 
 
 
 ==============================================================================
                           electrostatic moments
 ==============================================================================

 reference point for electrostatic moments:    0.00000   0.00000   0.00000

 
              nuc           elec       ->  total
 ------------------------------------------------------------------------------
                          charge      
 ------------------------------------------------------------------------------
          10.000000     -10.000000      -0.000000
 
 ------------------------------------------------------------------------------
                       dipole moment  
 ------------------------------------------------------------------------------
   x       0.000000       0.000000       0.000000
   y       0.000000       0.000000       0.000000
   z      -5.079052       5.912671       0.833619
 
   | dipole moment | =     0.8336 a.u. =     2.1188 debye 
 
 ------------------------------------------------------------------------------
                     quadrupole moment
 ------------------------------------------------------------------------------
  xx       4.016539      -7.255354      -3.238815
  yy       0.000000      -5.264569      -5.264569
  zz       4.474951      -9.815045      -5.340094
  xy       0.000000       0.000000       0.000000
  xz       0.000000      -0.000000      -0.000000
  yz       0.000000       0.000000       0.000000
 
     1/3  trace=      -4.614493
     anisotropy=       2.064553
 
 ==============================================================================
 


    ------------------------------------------------------------------------
         total  cpu-time :   0.07 seconds
         total wall-time :   0.09 seconds
    ------------------------------------------------------------------------

   ****  dscf : all done  ****


    2018-11-13 09:16:15.259 

