 operating system is UNIX !

 dscf (ucl-laptop) : TURBOMOLE V7.3 ( 22118 ) 1 Jul 2018 at 20:38:15
 Copyright (C) 2018 TURBOMOLE GmbH, Karlsruhe


    2019-07-12 09:44:23.118 



                             d s c f - program

                   idea & directorship : reinhart ahlrichs
                   program development : marco haeser
                                         michael baer
                           dft version : oliver treutler


                          quantum chemistry group
                          universitaet  karlsruhe
                                  germany




                          References             
                                                 
          TURBOMOLE:                             
              R. Ahlrichs, M. Baer, M. Haeser, H. Horn, and
              C. Koelmel
              Electronic structure calculations on workstation
              computers: the program system TURBOMOLE
              Chem. Phys. Lett. 162: 165 (1989)
          Density Functional:                              
              O. Treutler and R. Ahlrichs                      
              Efficient Molecular Numerical Integration Schemes
              J. Chem. Phys. 102: 346 (1995)                   
          Parallel Version:                                
              Performance of parallel TURBOMOLE for Density    
              Functional Calculations                          
              M. v. Arnim and R. Ahlrichs                      
              J. Comp. Chem. 19: 1746 (1998)                   
                                         




              +--------------------------------------------------+
              | Atomic coordinate, charge and isotop information |
              +--------------------------------------------------+

                    atomic coordinates            atom    charge  isotop
          0.00000000    0.00000000    0.12917062    n      7.000     0
          1.75612466    0.00000000   -0.59831614    h      1.000     0
         -0.87806233    1.52084857   -0.59831614    h      1.000     0
         -0.87806233   -1.52084857   -0.59831614    h      1.000     0
 
       center of nuclear mass  :   -0.00000000    0.00000000    0.00000000
       center of nuclear charge:   -0.00000000    0.00000000   -0.08907541

   *************************************************************************
   dscf                                                                     
   *************************************************************************



              +--------------------------------------------------+
              |               basis set information              |
              +--------------------------------------------------+

              we will work with the 1s 3p 5d 7f 9g ... basis set
              ...i.e. with spherical basis functions...

   type   atoms  prim   cont   basis
   ---------------------------------------------------------------------------
    n        1     24     14   def-SV(P)   [3s2p1d|7s4p1d]
    h        3      4      2   def-SV(P)   [2s|4s]
   ---------------------------------------------------------------------------
   total:    4     36     20
   ---------------------------------------------------------------------------

   total number of primitive shells          :   16
   total number of contracted shells         :   12
   total number of cartesian basis functions :   21
   total number of SCF-basis functions       :   20


 integral neglect threshold       :  0.16E-08
 integral storage threshold THIZE :  0.10E-04
 integral storage threshold THIME :         5


 symmetry group of the molecule :   c1 

 the group has the following generators :
   c1(z)

    1 symmetry operations found

 there are 1 real representations :   a   

 maximum number of shells which are related by symmetry :  1


    mo occupation :
   irrep   mo's   occupied
    a       20        5
 
 number of basis functions   :                     20
 number of occupied orbitals :                      5
 

 automatic virtual orbital shift switched on 
      shift if e(lumo)-e(homo) < 0.10000000    

 ==============================================================================
                      COSMO switched on
 ==============================================================================
 COSMO stati: segments per atom: H   32 other atoms   92
 COSMO statistics: nps    168 npspher:    105
 COSMO surface:
   number of segments:  168
   area (bohr**2):      172.967552
   volume (bohr**3):    205.077778
 COSMO: check number of disjunct cavities:

       ... OK contiguous cavity found
  
           ------------------
           density functional
           ------------------
 B-P86 functional
 exchange:    LDA + Becke (B88)
 correlation: LDA (VWN) + Perdew (P86)

 iterations will be done with small grid
  
 spherical integration : Lebedev's spherical grid
 spherical gridsize    :                     3
    i.e. gridpoints    :                   302
 value for diffuse not defined
 radial integration    : Chebyshev 2nd kind (scaling 3)
 radial gridsize       :                     3
 integration cells     :                     4
 partition function    : becke
 partition sharpness   :                     3
  

          ------------------------
          nuclear repulsion energy  :   12.0340111163    
          ------------------------


         -----------------
         -S,T+V- integrals
         -----------------

 1e-integrals will be neglected if expon. factor < 0.159141E-09
 
   Difference densities algorithm switched on.
   The maximal number of linear combinations of
   difference densities is                    20 .

 DIIS switched on: error vector is FDS-SDF
 Max. Iterations for DIIS is     :   4
 DIIS matrix (see manual) 
    Scaling factor of diagonals  :  1.200
    threshold for scaling factor :  0.000

 scf convergence criterion : increment of total energy < .1000000D-05
                  and increment of one-electron energy < .1000000D-02

  MOs are in ASCII format !


 reading orbital data $scfmo  from file mos
 orbital characterization : expanded
 mo provided and orthogonalized by Cholesky decomposition

 DSCF restart information will be dumped onto file mos

    Fermi smearing switched on
      Initial electron temperature:   500.00
        Final electron temperature:    50.00
                  Annealing factor:    0.900
       Annealing if HOMO-LUMO gap <  0.2E+00
      Smearing switched off if DE <  0.1E-02
          Overall gridpoints after grid construction =          4369
 
                                              current damping :  0.700
 ITERATION  ENERGY          1e-ENERGY        2e-ENERGY     NORM[dD(SAO)]  TOL
   1  -56.339530065437    -100.07607680     31.702535618    0.000D+00 0.159D-08
                            Exc =    -8.011498791125     N = 9.9991073352    
                          Ediel =    -0.018950975483
          max. resid. norm for Fia-block=  2.210D-01 for orbital      1a         
          max. resid. fock norm         =  1.048D+00 for orbital     14a         
          Delta Eig. =    31.3815007272 eV 
 
                                              current damping :  0.650
 ITERATION  ENERGY          1e-ENERGY        2e-ENERGY     NORM[dD(SAO)]  TOL
   2  -56.451684708901    -99.749695062     31.263999237    0.297D+00 0.102D-08
                            Exc =    -7.982334381446     N = 9.9992295849    
                          Ediel =    -0.013393233838
          Norm of current diis error: 0.44123    
          max. resid. norm for Fia-block=  1.121D-01 for orbital      1a         
          max. resid. fock norm         =  1.181D-01 for orbital      1a         
          Delta Eig. =    13.2600998359 eV 
         -------------------- FON Calculation ---------------------
                                 Fermi level F =        -0.24224
                   Total number of electrons N =        10.00000
           Occupation numbers calculated for T =       500.00000
                         Current HOMO-LUMO gap =     0.62195E+00
         ----------------------------------------------------------
 
                                              current damping :  0.600
 ITERATION  ENERGY          1e-ENERGY        2e-ENERGY     NORM[dD(SAO)]  TOL
   3  -56.490099046017    -99.877673394     31.353563232    0.106D+00 0.723D-09
                            Exc =    -8.023727662425     N = 9.9993314183    
                          Ediel =    -0.011740321805
          Norm of current diis error: 0.20607    
          max. resid. norm for Fia-block=  4.551D-02 for orbital      1a         
          max. resid. fock norm         =  4.894D-02 for orbital      6a         
          Delta Eig. =     5.1531252438 eV 
         -------------------- FON Calculation ---------------------
                                 Fermi level F =        -0.20593
                   Total number of electrons N =        10.00000
           Occupation numbers calculated for T =       500.00000
                         Current HOMO-LUMO gap =     0.39626E+00
         ----------------------------------------------------------
 
                                              current damping :  0.650
 ITERATION  ENERGY          1e-ENERGY        2e-ENERGY     NORM[dD(SAO)]  TOL
   4  -56.500925473963    -99.792570125     31.257633535    0.548D-01 0.614D-09
                            Exc =    -8.028681726860     N = 9.9993768654    
                          Ediel =    -0.010688457587
          Norm of current diis error: 0.83103E-01
          max. resid. norm for Fia-block=  1.945D-02 for orbital      2a         
          max. resid. fock norm         =  2.220D-02 for orbital      6a         
          Delta Eig. =     1.8836601867 eV 
         -------------------- FON Calculation ---------------------
                                 Fermi level F =        -0.19773
                   Total number of electrons N =        10.00000
           Occupation numbers calculated for T =       500.00000
                         Current HOMO-LUMO gap =     0.31884E+00
         ----------------------------------------------------------
 
                                              current damping :  0.700
 ITERATION  ENERGY          1e-ENERGY        2e-ENERGY     NORM[dD(SAO)]  TOL
   5  -56.502788997083    -99.857899310     31.321099197    0.155D-01 0.567D-09
                            Exc =    -8.044554325978     N = 9.9993952832    
                          Ediel =    -0.010461987355
          Norm of current diis error: 0.35203E-01
          max. resid. norm for Fia-block=  7.872D-03 for orbital      5a         
          max. resid. fock norm         =  8.140D-03 for orbital     11a         
 mo-orthogonalization: Cholesky decomposition
          Delta Eig. =     0.7784287524 eV 
         -------------------- FON Calculation ---------------------
                                 Fermi level F =        -0.19081
                   Total number of electrons N =        10.00000
           Occupation numbers calculated for T =       500.00000
                         Current HOMO-LUMO gap =     0.28691E+00
         ----------------------------------------------------------
 
                                              current damping :  0.750
 ITERATION  ENERGY          1e-ENERGY        2e-ENERGY     NORM[dD(SAO)]  TOL
   6  -56.503153126926    -99.817994813     31.280830570    0.401D-02 0.543D-09
                            Exc =    -8.042343038858     N = 9.9994022969    
                          Ediel =    -0.010205384705
          Norm of current diis error: 0.14604E-01
          max. resid. norm for Fia-block=  3.409D-03 for orbital      2a         
          max. resid. fock norm         =  3.964D-03 for orbital      6a         
          Delta Eig. =     0.2851852433 eV 
         -------------------- FON Calculation ---------------------
                                 Fermi level F =        -0.18971
                   Total number of electrons N =        10.00000
           Occupation numbers calculated for T =       500.00000
                         Current HOMO-LUMO gap =     0.27535E+00
         ----------------------------------------------------------
 
                                              current damping :  0.800
 ITERATION  ENERGY          1e-ENERGY        2e-ENERGY     NORM[dD(SAO)]  TOL
   7  -56.503212039461    -99.833380365     31.296157210    0.420D-03 0.528D-09
                            Exc =    -8.045569483259     N = 9.9994052919    
                          Ediel =    -0.010175251133
          Norm of current diis error: 0.58889E-02
          max. resid. norm for Fia-block=  1.235D-03 for orbital      2a         
          max. resid. fock norm         =  1.547D-03 for orbital      6a         
          Delta Eig. =     0.1148828281 eV 
         -------------------- FON Calculation ---------------------
                                 Fermi level F =        -0.18882
                   Total number of electrons N =        10.00000
           Occupation numbers calculated for T =       500.00000
                         Current HOMO-LUMO gap =     0.27022E+00
         ----------------------------------------------------------
 
                                              current damping :  0.850
 ITERATION  ENERGY          1e-ENERGY        2e-ENERGY     NORM[dD(SAO)]  TOL
   8  -56.503222996515    -99.831193546     31.293959433    0.361D-04 0.518D-09
                            Exc =    -8.045797094676     N = 9.9994065355    
                          Ediel =    -0.010139923719
          Norm of current diis error: 0.25951E-02
          max. resid. norm for Fia-block=  5.842D-04 for orbital      2a         
          max. resid. fock norm         =  7.199D-04 for orbital      6a         
          Delta Eig. =     0.0503691745 eV 
         -------------------- FON Calculation ---------------------
                                 Fermi level F =        -0.18851
                   Total number of electrons N =        10.00000
           Occupation numbers calculated for T =       500.00000
                         Current HOMO-LUMO gap =     0.26806E+00
         ----------------------------------------------------------

 ENERGY CONVERGED !

 Big Grid 
 e2xc, e2xcold =     -8.04610715     -8.04610715
          Overall gridpoints after grid construction =         17370
 
                                              current damping :  0.900
 ITERATION  ENERGY          1e-ENERGY        2e-ENERGY     NORM[dD(SAO)]  TOL
   9  -56.503497675082    -99.831883464     31.294374673    0.774D-05 0.507D-09
                            Exc =    -8.046379758098     N = 9.9999980238    
                          Ediel =    -0.010128518435
          max. resid. norm for Fia-block=  2.675D-04 for orbital      2a         
          max. resid. fock norm         =  3.208D-04 for orbital      6a         

 convergence criteria satisfied after     9 iterations


   *************************************************************************
   dscf                                                                     
   *************************************************************************


                  ------------------------------------------ 
                 |  total energy      =    -56.50349767508  |
                  ------------------------------------------ 
                 :  kinetic energy    =     56.09017689185  :
                 :  potential energy  =   -112.59367456693  :
                 :  virial theorem    =      1.99268504075  :
                 :  wavefunction norm =      1.00000000000  :
                  .......................................... 


 <geterg> : there is no data group $energy 


 <skperg> : $end is missing 


 orbitals $scfmo  will be written to file mos

    irrep                  1a          2a          3a          4a          5a   
 eigenvalues H        -13.96497    -0.75973    -0.40371    -0.40367    -0.20845
            eV        -380.0091    -20.6735    -10.9855    -10.9844     -5.6723
 occupation              2.0000      2.0000      2.0000      2.0000      2.0000 

    irrep                  6a          7a          8a          9a         10a   
 eigenvalues H          0.05771     0.14080     0.14088     0.50111     0.50113
            eV           1.5705      3.8313      3.8337     13.6361     13.6366
 
 ==============================================================================
                                  COSMO RESULTS
 ==============================================================================
  PARAMETER:
    nppa:      1082
    nspa:        92
    nsph:        32
    nps:        168
    npspher:    105
    disex:   10.0000    
    disex2:  3600.83    
    rsolv [A]: 1.3000
    routf:     0.8500
    phsran:    0.0    
    ampran:   0.10E-04
    cavity:  closed
    epsilon: infinity
    refind:     1.300
    fepsi:      1.0000000
  CAVITY VOLUME/AREA [a.u.]:
    surface: V1.0, A matrix: V1.0
    area:   172.97
    volume:   205.08
  SCREENING CHARGE:
    cosmo      :  -0.008256
    correction :   0.008017
    total      :  -0.000239
  ENERGIES [a.u.]:
    Total energy            =     -56.5034976750817
    Total energy + OC corr. =      -56.5035465384
    Dielectric energy       =       -0.0101285184
    Diel. energy + OC corr. =       -0.0101773817
  ELEMENT RADIUS [A]: ATOM LIST
    n  1.83: 1
    h  1.30: 2-4
 ==============================================================================
 
 
 
 ==============================================================================
                           electrostatic moments
 ==============================================================================

 reference point for electrostatic moments:    0.00000   0.00000   0.00000

 
              nuc           elec       ->  total
 ------------------------------------------------------------------------------
                          charge      
 ------------------------------------------------------------------------------
          10.000000     -10.000000      -0.000000
 
 ------------------------------------------------------------------------------
                       dipole moment  
 ------------------------------------------------------------------------------
   x      -0.000000      -0.000114      -0.000114
   y       0.000000      -0.000076      -0.000076
   z      -0.890754       0.047683      -0.843072
 
   | dipole moment | =     0.8431 a.u. =     2.1429 debye 
 
 ------------------------------------------------------------------------------
                     quadrupole moment
 ------------------------------------------------------------------------------
  xx       4.625961      -9.138855      -4.512894
  yy       4.625961      -9.138677      -4.512716
  zz       1.190742      -7.528023      -6.337281
  xy       0.000000       0.000007       0.000007
  xz       0.000000       0.000160       0.000160
  yz       0.000000      -0.000023      -0.000023
 
     1/3  trace=      -5.120964
     anisotropy=       1.824476
 
 ==============================================================================
 


    ------------------------------------------------------------------------
         total  cpu-time :   0.19 seconds
         total wall-time :   0.31 seconds
    ------------------------------------------------------------------------

   ****  dscf : all done  ****


    2019-07-12 09:44:23.377 

