
 eiger (ucl-laptop) : TURBOMOLE V7.3 ( 22118 ) 1 Jul 2018 at 20:38:15
 Copyright (C) 2018 TURBOMOLE GmbH, Karlsruhe


    2018-12-27 10:23:57.882 

 dscf                                                                           
  
Total energy =    -56.4943997265 H =     -1537.2917087 eV
 
 HOMO-LUMO Separation
   HOMO:     5.     5 a     -0.20075412 H =     -5.46280 eV
   LUMO:     6.     6 a     +0.04271339 H =     +1.16229 eV
   Gap :                    +0.24346751 H =     +6.62509 eV
 
Number of MOs=     20, Electrons=     10.00, Symmetry: c1   
 
   Nr.   Orbital    Occupation       Energy
   20.    20 a                     +2.552573 H =       +69.459 eV
   19.    19 a                     +2.550049 H =       +69.390 eV
   18.    18 a                     +2.229473 H =       +60.667 eV
   17.    17 a                     +2.021244 H =       +55.001 eV
   16.    16 a                     +2.021147 H =       +54.998 eV
   15.    15 a                     +0.905589 H =       +24.642 eV
   14.    14 a                     +0.839628 H =       +22.847 eV
   13.    13 a                     +0.839456 H =       +22.843 eV
   12.    12 a                     +0.696425 H =       +18.951 eV
   11.    11 a                     +0.673863 H =       +18.337 eV
   10.    10 a                     +0.499206 H =       +13.584 eV
    9.     9 a                     +0.499202 H =       +13.584 eV
    8.     8 a                     +0.125857 H =        +3.425 eV
    7.     7 a                     +0.125757 H =        +3.422 eV
    6.     6 a                     +0.042713 H =        +1.162 eV
    5.     5 a        2.000        -0.200754 H =        -5.463 eV
    4.     4 a        2.000        -0.410068 H =       -11.159 eV
    3.     3 a        2.000        -0.410107 H =       -11.160 eV
    2.     2 a        2.000        -0.766373 H =       -20.854 eV
    1.     1 a        2.000       -13.968150 H =      -380.093 eV


    ------------------------------------------------------------------------
         total  cpu-time :   0.01 seconds
         total wall-time :   0.01 seconds
    ------------------------------------------------------------------------

   ****  eiger : all done  ****


    2018-12-27 10:23:57.884 

