
 statpt (ucl-laptop) : TURBOMOLE V7.3 ( 22118 ) 1 Jul 2018 at 20:38:15
 Copyright (C) 2018 TURBOMOLE GmbH, Karlsruhe


    2019-07-12 17:31:48.312 



                           this is S T A T P T   


                     hessian and coordinate update for
                          stationary point search 

                     by barbara unterreiner, marek sierka,
                           and reinhart ahlrichs

                          quantum chemistry group
                          universitaet  karlsruhe
                                  germany




              +--------------------------------------------------+
              | Atomic coordinate, charge and isotop information |
              +--------------------------------------------------+

                    atomic coordinates            atom    charge  isotop
          0.04340035   -2.43303953    0.00000000    o      8.000     0
          2.40289845    1.33092842    0.00000000    c      6.000     0
         -2.44869437    1.25914649    0.00000000    c      6.000     0
         -0.00810063   -0.18289217    0.00000000    c      6.000     0
          2.09020694    3.35088178    0.00000000    h      1.000     0
         -4.02779836   -0.02916167    0.00000000    h      1.000     0
          3.51545227    0.83515949    1.64389798    h      1.000     0
          3.51545227    0.83515949   -1.64389798    h      1.000     0
         -2.56998075    2.47145950    1.64993688    h      1.000     0
         -2.56998075    2.47145950   -1.64993688    h      1.000     0
 
       center of nuclear mass  :   -0.00000000   -0.00000000    0.00000000
       center of nuclear charge:   -0.00071328    0.15355432    0.00000000
  Keyword $statpt not found - using default options
 
        ***************  Stationary point options ******************
        ************************************************************
           Maximum allowed trust radius:           3.000000E-01
           Minimum allowed trust radius:           1.000000E-03
           Initial trust radius:                   1.500000E-01
           GDIIS used if gradient norm <           1.000000E-02
           Number of previous steps for GDIIS:       5
           Hessian update method:                  BFGS
                        *** Convergence criteria ***                
           Threshold for energy change:            1.000000E-06
           Threshold for max displacement element: 1.000000E-03
           Threshold for max gradient element :    1.000000E-03
           Threshold for RMS of displacement:      5.000000E-04
           Threshold for RMS of gradient:          5.000000E-04
        ************************************************************
 

 keyword $statp missing in file <control>

  Keyword $statpt not found - using default options
  actual coordinates :
         0.043400351957        -2.433039530057         0.000000000000
         2.402898454616         1.330928421094         0.000000000000
        -2.448694368040         1.259146491456         0.000000000000
        -0.008100625945        -0.182892174607         0.000000000000
         2.090206938488         3.350881776630         0.000000000000
        -4.027798360295        -0.029161670262         0.000000000000
         3.515452266117         0.835159491916         1.643897984114
         3.515452266117         0.835159491916        -1.643897984114
        -2.569980747532         2.471459504054         1.649936881815
        -2.569980747532         2.471459504054        -1.649936881815
  actual gradients :
        -0.001645896138         0.055104915219        -0.000000000006
         0.006828022545        -0.002278328907        -0.000000000000
        -0.004528488668         0.001092060032         0.000000000023
         0.001351287635        -0.034176939830        -0.000000000005
         0.002255976183        -0.019645619521        -0.000000000003
         0.015909351007         0.013716421198        -0.000000000010
        -0.010891369161         0.005462745357        -0.015809721631
        -0.010891369160         0.005462745356         0.015809721630
         0.000809340474        -0.012367248299        -0.014856470475
         0.000809340474        -0.012367248300         0.014856470477

 keyword $optinfo  missing in file <control>

  *************************************************************************
   ATOM                      CARTESIAN COORDINATES
    1 o       0.04340035195667     -2.43303953005673      0.00000000000000
    2 c       2.40289845461643      1.33092842109441      0.00000000000000
    3 c      -2.44869436804036      1.25914649145556      0.00000000000000
    4 c      -0.00810062594451     -0.18289217460735      0.00000000000000
    5 h       2.09020693848844      3.35088177662976      0.00000000000000
    6 h      -4.02779836029488     -0.02916167026231      0.00000000000000
    7 h       3.51545226611740      0.83515949191596      1.64389798411415
    8 h       3.51545226611740      0.83515949191596     -1.64389798411415
    9 h      -2.56998074753163      2.47145950405360      1.64993688181532
   10 h      -2.56998074753163      2.47145950405360     -1.64993688181532
  *************************************************************************
   ATOM                      CARTESIAN GRADIENTS  
    1 o      -0.00164589613775      0.05510491521931     -0.00000000000558
    2 c       0.00682802254535     -0.00227832890659     -0.00000000000040
    3 c      -0.00452848866838      0.00109206003234      0.00000000002279
    4 c       0.00135128763542     -0.03417693983001     -0.00000000000532
    5 h       0.00225597618320     -0.01964561952050     -0.00000000000349
    6 h       0.01590935100729      0.01371642119775     -0.00000000001039
    7 h      -0.01089136916135      0.00546274535652     -0.01580972163052
    8 h      -0.01089136916046      0.00546274535596      0.01580972162998
    9 h       0.00080934047373     -0.01236724829889     -0.01485647047543
   10 h       0.00080934047423     -0.01236724830042      0.01485647047683
  *************************************************************************

  norm of actual CARTESIAN gradient:  8.16113E-02

  ENERGY =    -192.9994511333 a.u.; # of cycle =    1


 keyword $hessapprox missing in file <control>


  USING DIAGONAL INITIAL HESSIAN
  Diagonal elements set to:    0.50000
  Number of zero Hessian eigenvalues:   6

  Results of the TRO shift search
  Final shift: -4.40755E-02 residual -2.98372E-16
  Final step radius: 1.50000E-01

      ****************************************************************** 
                          CONVERGENCE INFORMATION

                               Converged?     Value      Criterion
             Energy change         no     192.9994511   0.0000010
             RMS of displacement   no       0.0273861   0.0005000
             RMS of gradient       no       0.0149001   0.0005000
             MAX displacement      no       0.1012810   0.0010000
             MAX gradient          no       0.0551049   0.0010000
      ****************************************************************** 


    ------------------------------------------------------------------------
         total  cpu-time :   0.02 seconds
         total wall-time :   0.02 seconds
    ------------------------------------------------------------------------

   ****  statpt : all done  ****


    2019-07-12 17:31:48.327 

