 operating system is UNIX !

 dscf (ucl-laptop) : TURBOMOLE V7.3 ( 22118 ) 1 Jul 2018 at 20:38:15
 Copyright (C) 2018 TURBOMOLE GmbH, Karlsruhe


    2019-07-13 01:05:18.273 



                             d s c f - program

                   idea & directorship : reinhart ahlrichs
                   program development : marco haeser
                                         michael baer
                           dft version : oliver treutler


                          quantum chemistry group
                          universitaet  karlsruhe
                                  germany




                          References             
                                                 
          TURBOMOLE:                             
              R. Ahlrichs, M. Baer, M. Haeser, H. Horn, and
              C. Koelmel
              Electronic structure calculations on workstation
              computers: the program system TURBOMOLE
              Chem. Phys. Lett. 162: 165 (1989)
          Density Functional:                              
              O. Treutler and R. Ahlrichs                      
              Efficient Molecular Numerical Integration Schemes
              J. Chem. Phys. 102: 346 (1995)                   
          Parallel Version:                                
              Performance of parallel TURBOMOLE for Density    
              Functional Calculations                          
              M. v. Arnim and R. Ahlrichs                      
              J. Comp. Chem. 19: 1746 (1998)                   
                                         




              +--------------------------------------------------+
              | Atomic coordinate, charge and isotop information |
              +--------------------------------------------------+

                    atomic coordinates            atom    charge  isotop
          0.04340035   -2.43303953    0.00000000    o      8.000     0
          2.40289845    1.33092842    0.00000000    c      6.000     0
         -2.44869437    1.25914649    0.00000000    c      6.000     0
         -0.00810063   -0.18289217    0.00000000    c      6.000     0
          2.09020694    3.35088178    0.00000000    h      1.000     0
         -4.02779836   -0.02916167    0.00000000    h      1.000     0
          3.51545227    0.83515949    1.64389798    h      1.000     0
          3.51545227    0.83515949   -1.64389798    h      1.000     0
         -2.56998075    2.47145950    1.64993688    h      1.000     0
         -2.56998075    2.47145950   -1.64993688    h      1.000     0
 
       center of nuclear mass  :   -0.00000000   -0.00000000    0.00000000
       center of nuclear charge:   -0.00071328    0.15355432    0.00000000

   *************************************************************************
   dscf                                                                     
   *************************************************************************



              +--------------------------------------------------+
              |               basis set information              |
              +--------------------------------------------------+

              we will work with the 1s 3p 5d 7f 9g ... basis set
              ...i.e. with spherical basis functions...

   type   atoms  prim   cont   basis
   ---------------------------------------------------------------------------
    o        1     34     19   def-TZVP   [5s3p1d|11s6p1d]
    c        3     34     19   def-TZVP   [5s3p1d|11s6p1d]
    h        6      8      6   def-TZVP   [3s1p|5s1p]
   ---------------------------------------------------------------------------
   total:   10    184    112
   ---------------------------------------------------------------------------

   total number of primitive shells          :   42
   total number of contracted shells         :   60
   total number of cartesian basis functions :  116
   total number of SCF-basis functions       :  112


 integral neglect threshold       :  0.29E-09
 integral storage threshold THIZE :  0.10E-04
 integral storage threshold THIME :         5


 symmetry group of the molecule :   c1 

 the group has the following generators :
   c1(z)

    1 symmetry operations found

 there are 1 real representations :   a   

 maximum number of shells which are related by symmetry :  1


    mo occupation :
   irrep   mo's   occupied
    a      112       16
 
 number of basis functions   :                    112
 number of occupied orbitals :                     16
 

 automatic virtual orbital shift switched on 
      shift if e(lumo)-e(homo) < 0.10000000    

  
           ------------------
           density functional
           ------------------
 B-P86 functional
 exchange:    LDA + Becke (B88)
 correlation: LDA (VWN) + Perdew (P86)

 iterations will be done with small grid
  
 spherical integration : Lebedev's spherical grid
 spherical gridsize    :                     3
    i.e. gridpoints    :                   302
 value for diffuse not defined
 radial integration    : Chebyshev 2nd kind (scaling 3)
 radial gridsize       :                     3
 integration cells     :                    10
 partition function    : becke
 partition sharpness   :                     3
  

          ------------------------
          nuclear repulsion energy  :   120.594341137    
          ------------------------

  _________________________________
 |                                 |
 |         DFTD3 V3.1 Rev 0        |
 | S.Grimme, University Bonn       |
 |            June  2014           |
 |   see standalone version        |
 |       dftd3 -h for options      |
 |_________________________________|
 
 Please cite DFT-D3 work done with this code as:
 S. Grimme, J. Antony, S. Ehrlich and H. Krieg,
 J. Chem. Phys, 132 (2010), 154104.
 If used with BJ-damping cite also
 S. Grimme, S. Ehrlich and L. Goerigk,
 J. Comput. Chem. 32 (2011), 1456-1465
 For DFT-D2 the reference is
 S. Grimme, J. Comput. Chem., 27 (2006), 1787-1799
 
C6 coefficients used:
                     2  C6 for element                      1
Z=  1 CN= 0.912     C6(AA)=    3.03
Z=  1 CN= 0.000     C6(AA)=    7.59
                     5  C6 for element                      6
Z=  6 CN= 0.000     C6(AA)=   49.11
Z=  6 CN= 0.987     C6(AA)=   43.25
Z=  6 CN= 1.998     C6(AA)=   29.36
Z=  6 CN= 2.999     C6(AA)=   25.78
Z=  6 CN= 3.984     C6(AA)=   18.21
                     3  C6 for element                      8
Z=  8 CN= 0.000     C6(AA)=   15.51
Z=  8 CN= 0.993     C6(AA)=   12.82
Z=  8 CN= 1.989     C6(AA)=   10.37

#           XYZ [au]              R0(AA) [Ang.]  CN          C6(AA)     C8(AA)   C10(AA) [au]
  1   0.04340  -2.43304   0.00000   o   1.241  1.060        12.8       257.6      6366.9
  2   2.40290   1.33093   0.00000   c   1.455  4.035        18.3       529.2     18748.5
  3  -2.44869   1.25915   0.00000   c   1.455  4.035        18.3       529.2     18749.0
  4  -0.00810  -0.18289   0.00000   c   1.455  3.019        25.6       741.5     26269.1
  5   2.09021   3.35088   0.00000   h   1.091  0.999         3.1        37.4       553.3
  6  -4.02780  -0.02916   0.00000   h   1.091  1.000         3.1        37.4       553.2
  7   3.51545   0.83516   1.64390   h   1.091  1.000         3.1        37.4       553.2
  8   3.51545   0.83516  -1.64390   h   1.091  1.000         3.1        37.4       553.2
  9  -2.56998   2.47146   1.64994   h   1.091  0.999         3.1        37.4       553.3
 10  -2.56998   2.47146  -1.64994   h   1.091  0.999         3.1        37.4       553.3

molecular C6(AA) [au] =       764.02

           DFT-D V3
 DF b-p                                               
 parameters
 s6       :    1.0000
 s8       :    1.6830
 rs6      :    1.1390
 rs18     :    1.0000
 alpha6   :   14.0000
 alpha8   :   16.0000
 k1-k3    :   16.0000    1.3333   -4.0000
 
 Edisp /kcal,au:    -3.1494 -0.00501893

 E6    /kcal :    -0.9162
 E8    /kcal :    -2.2332
 % E8        : 70.91
 nuclear repulsion energy                  =     120.594341137
 empirical dispersive energy correction    =      -0.005018931
 nuclear repulsion + dispersion correction =     120.589322206


         -----------------
         -S,T+V- integrals
         -----------------

 1e-integrals will be neglected if expon. factor < 0.288100E-10
 
   Difference densities algorithm switched on.
   The maximal number of linear combinations of
   difference densities is                    20 .

 DIIS switched on: error vector is FDS-SDF
 Max. Iterations for DIIS is     :   4
 DIIS matrix (see manual) 
    Scaling factor of diagonals  :  1.200
    threshold for scaling factor :  0.000

 scf convergence criterion : increment of total energy < .1000000D-05
                  and increment of one-electron energy < .1000000D-02

  MOs are in ASCII format !


 reading orbital data $scfmo  from file mos
 orbital characterization : expanded
 mo provided and orthogonalized by Cholesky decomposition

 DSCF restart information will be dumped onto file mos

          Overall gridpoints after grid construction =         12185
 
                                              current damping :  0.700
 ITERATION  ENERGY          1e-ENERGY        2e-ENERGY     NORM[dD(SAO)]  TOL
   1  -192.29372814146    -494.75874322     181.87569287    0.000D+00 0.287D-09
                            Exc =   -26.721881363755     N = 32.002584625    
          max. resid. norm for Fia-block=  3.728D-01 for orbital      8a         
          max. resid. fock norm         =  1.227D+01 for orbital     75a         
          Delta Eig. =   665.9902743000 eV 
 
                                              current damping :  0.650
 ITERATION  ENERGY          1e-ENERGY        2e-ENERGY     NORM[dD(SAO)]  TOL
   2  -193.08338347268    -497.98072779     184.30802211    0.766D+00 0.192D-09
                            Exc =   -26.897417019232     N = 32.002089959    
          Norm of current diis error:  1.3610    
          max. resid. norm for Fia-block=  1.668D-01 for orbital      1a         
          max. resid. fock norm         =  2.599D-01 for orbital     99a         
          Delta Eig. =   272.6555295597 eV 
 
                                              current damping :  0.550
 ITERATION  ENERGY          1e-ENERGY        2e-ENERGY     NORM[dD(SAO)]  TOL
   3  -193.19547684485    -499.37212801     185.58732896    0.479D+00 0.146D-09
                            Exc =   -27.100555010104     N = 32.001848710    
          Norm of current diis error: 0.64867    
          max. resid. norm for Fia-block=  6.568D-02 for orbital      1a         
          max. resid. fock norm         =  7.251D-02 for orbital     42a         
          Delta Eig. =   117.7124618446 eV 
 
                                              current damping :  0.600
 ITERATION  ENERGY          1e-ENERGY        2e-ENERGY     NORM[dD(SAO)]  TOL
   4  -193.22921374733    -499.22510957     185.40657362    0.397D+00 0.120D-09
                            Exc =   -27.085450522612     N = 32.001700585    
          Norm of current diis error: 0.27555    
          max. resid. norm for Fia-block=  3.550D-02 for orbital      5a         
          max. resid. fock norm         =  5.630D-02 for orbital     96a         
          Delta Eig. =    38.2763237663 eV 
 
                                              current damping :  0.650
 ITERATION  ENERGY          1e-ENERGY        2e-ENERGY     NORM[dD(SAO)]  TOL
   5  -193.23432847370    -499.80452889     185.98087821    0.105D+00 0.113D-09
                            Exc =   -27.166747864899     N = 32.001655057    
          Norm of current diis error: 0.12488    
          max. resid. norm for Fia-block=  9.132D-03 for orbital     15a         
          max. resid. fock norm         =  1.001D-02 for orbital     17a         
 mo-orthogonalization: Cholesky decomposition
          Delta Eig. =    14.8104353630 eV 
 
                                              current damping :  0.700
 ITERATION  ENERGY          1e-ENERGY        2e-ENERGY     NORM[dD(SAO)]  TOL
   6  -193.23583150356    -499.73583122     185.91067751    0.329D-01 0.106D-09
                            Exc =   -27.158113331997     N = 32.001630900    
          Norm of current diis error: 0.33919E-01
          max. resid. norm for Fia-block=  3.796D-03 for orbital      5a         
          max. resid. fock norm         =  6.008D-03 for orbital     96a         
          Delta Eig. =     5.5111460878 eV 
 
                                              current damping :  0.550
 ITERATION  ENERGY          1e-ENERGY        2e-ENERGY     NORM[dD(SAO)]  TOL
   7  -193.23594199261    -499.73460834     185.90934414    0.491D-02 0.102D-09
                            Exc =   -27.160797193725     N = 32.001623040    
          Norm of current diis error: 0.15067E-01
          max. resid. norm for Fia-block=  1.546D-03 for orbital      5a         
          max. resid. fock norm         =  2.372D-03 for orbital     93a         
          Delta Eig. =     2.4650486877 eV 
 
                                              current damping :  0.600
 ITERATION  ENERGY          1e-ENERGY        2e-ENERGY     NORM[dD(SAO)]  TOL
   8  -193.23596594359    -499.76328543     185.93799728    0.215D-02 0.100D-09
                            Exc =   -27.163727876429     N = 32.001619261    
          Norm of current diis error: 0.53518E-02
          max. resid. norm for Fia-block=  5.945D-04 for orbital      5a         
          max. resid. fock norm         =  9.275D-04 for orbital     96a         
          Delta Eig. =     0.8577086187 eV 
 
                                              current damping :  0.650
 ITERATION  ENERGY          1e-ENERGY        2e-ENERGY     NORM[dD(SAO)]  TOL
   9  -193.23596869472    -499.75961548     185.93432458    0.228D-03 0.988D-10
                            Exc =   -27.163978509912     N = 32.001618047    
          Norm of current diis error: 0.19714E-02
          max. resid. norm for Fia-block=  2.011D-04 for orbital      1a         
          max. resid. fock norm         =  2.440D-04 for orbital     11a         
          Delta Eig. =     0.3145243869 eV 

 ENERGY CONVERGED !

 Big Grid 
 e2xc, e2xcold =    -27.16402767    -27.16402767
          Overall gridpoints after grid construction =         46350
 
                                              current damping :  0.700
 ITERATION  ENERGY          1e-ENERGY        2e-ENERGY     NORM[dD(SAO)]  TOL
  10  -193.23564823830    -499.76046649     185.93549604    0.949D-04 0.974D-10
                            Exc =   -27.163706826906     N = 32.000005451    
          max. resid. norm for Fia-block=  1.579D-04 for orbital      5a         
          max. resid. fock norm         =  2.497D-04 for orbital     96a         

 convergence criteria satisfied after    10 iterations


   *************************************************************************
   dscf                                                                     
   *************************************************************************


                  ------------------------------------------ 
                 |  total energy      =   -193.23564823830  |
                  ------------------------------------------ 
                 :  kinetic energy    =    192.64012564901  :
                 :  potential energy  =   -385.87577388731  :
                 :  virial theorem    =      1.99691815359  :
                 :  wavefunction norm =      1.00000000000  :
                  .......................................... 


 <geterg> : there is no data group $energy 


 <skperg> : $end is missing 


 orbitals $scfmo  will be written to file mos

    irrep                 12a         13a         14a         15a         16a   
 eigenvalues H         -0.37054    -0.35787    -0.34161    -0.31965    -0.21005
            eV         -10.0830     -9.7383     -9.2958     -8.6983     -5.7157
 occupation              2.0000      2.0000      2.0000      2.0000      2.0000 

    irrep                 17a         18a         19a         20a         21a   
 eigenvalues H         -0.05645     0.01758     0.06563     0.08278     0.08361
            eV          -1.5361      0.4783      1.7860      2.2526      2.2752
 
 
 
 
 ==============================================================================
                           electrostatic moments
 ==============================================================================

 reference point for electrostatic moments:    0.00000   0.00000   0.00000

 
              nuc           elec       ->  total
 ------------------------------------------------------------------------------
                          charge      
 ------------------------------------------------------------------------------
          32.000000     -32.000000      -0.000000
 
 ------------------------------------------------------------------------------
                       dipole moment  
 ------------------------------------------------------------------------------
   x      -0.022825       0.024077       0.001253
   y       4.913738      -3.816425       1.097314
   z       0.000000      -0.000000      -0.000000
 
   | dipole moment | =     1.0973 a.u. =     2.7891 debye 
 
 ------------------------------------------------------------------------------
                     quadrupole moment
 ------------------------------------------------------------------------------
  xx     129.154149    -146.719903     -17.565754
  yy      92.539536    -113.845019     -21.305483
  zz      10.849385     -28.816041     -17.966656
  xy       0.143270      -0.170093      -0.026823
  xz       0.000000       0.000000       0.000000
  yz       0.000000      -0.000000      -0.000000
 
     1/3  trace=     -18.945964
     anisotropy=       3.556570
 
 ==============================================================================
 


    ------------------------------------------------------------------------
         total  cpu-time :   7.48 seconds
         total wall-time :   7.76 seconds
    ------------------------------------------------------------------------

   ****  dscf : all done  ****


    2019-07-13 01:05:25.976 

