 operating system is UNIX !

 escf (ucl-laptop) : TURBOMOLE V7.3 ( 22118 ) 1 Jul 2018 at 20:38:15
 Copyright (C) 2018 TURBOMOLE GmbH, Karlsruhe


    2019-02-06 17:19:00.909 




                                e s c f

                             TURBOMOLE GmbH


          integral direct evaluation of 

                    * excitation energies and transition moments 
                    * dynamic response properties 
                    * stabilities



          references (see also programs dscf and ridft) 

          implementation and benchmarks (review) 
          F. Furche and D. Rappoport,  
          "Density functional methods for excited states: 
          equilibrium structure and electronic spectra",
          ch. III of "Computational Photochemistry", ed. by 
          M. Olivucci, vol. 16 of "Theoretical and Computational 
          Chemistry", Elsevier, Amsterdam, 2005.

          Bethe-Salpeter equation
          K. Krause and W. Klopper,
          J. Comput. Chem. 38 (2017) 383.

          nonorthonormal Krylov space methods 
          F. Furche, B. T. Krull, B. D. Nguyen, and J. Kwon, 
          J. Chem. Phys. 144 (2016), 174105.

          two-component GW quasi particle energies 
          M. Kuehn and F. Weigend, 
          J. Chem. Theory Comput. 11 (2015), 969.

          two-component TDDFT with spin-orbit coupling 
          M. Kuehn and F. Weigend, 
          J. Chem. Theory Comput. 9 (2013), 5341.
          M. Kuehn and F. Weigend, 
          J. Chem. Phys. 142 (2015), 034116.

          GW quasi particle energies
          M. J. van Setten, F. Weigend, and F. Evers,
          J. Chem. Theory Comput. 9 (2013), 232.

          current-density dependent meta-GGA Linear Response
          J. E. Bates and F. Furche, 
          J. Chem. Phys. 137 (2012), 164105.

          spin-flip method 
          M. Kuehn and F. Weigend, 
          Chem. Phys. Chem. 12 (2011), 3331.

          RI-J method 
          R. Bauernschmitt, M. Haeser, O. Treutler, and R. Ahlrichs,
          Chem. Phys. Lett. 264 (1997), 573.

          density functional implementation               
          R. Bauernschmitt and R. Ahlrichs,
          Chem. Phys. Lett. 256 (1996), 454.
          R. Bauernschmitt and R. Ahlrichs,
          J. Chem. Phys. 104 (1996), 9047.

          UHF extension (RPA and CIS)
          C. Ochsenfeld, J. Gauss, and R. Ahlrichs, 
          J. Chem. Phys. 103 (1995), 7401.

          integral direct algorithm                 
          H. Weiss, R. Ahlrichs, and M. Haeser, 
          J. Chem. Phys. 99 (1993), 1262.
                                     




              +--------------------------------------------------+
              | Atomic coordinate, charge and isotop information |
              +--------------------------------------------------+

                    atomic coordinates            atom    charge  isotop
          0.00000000    0.00000000   -0.72557892    o      8.000     0
          1.41713421    0.00000000    0.36278946    h      1.000     0
         -1.41713421    0.00000000    0.36278946    h      1.000     0
 
       center of nuclear mass  :    0.00000000    0.00000000   -0.60378908
       center of nuclear charge:    0.00000000    0.00000000   -0.50790525

   *************************************************************************
   ridft_escf                                                               
   *************************************************************************



              +--------------------------------------------------+
              |               basis set information              |
              +--------------------------------------------------+

              we will work with the 1s 3p 5d 7f 9g ... basis set
              ...i.e. with spherical basis functions...

   type   atoms  prim   cont   basis
   ---------------------------------------------------------------------------
    o        1     24     14   def-SV(P)   [3s2p1d|7s4p1d]
    h        2      4      2   def-SV(P)   [2s|4s]
   ---------------------------------------------------------------------------
   total:    3     32     18
   ---------------------------------------------------------------------------

   total number of primitive shells          :   16
   total number of contracted shells         :   10
   total number of cartesian basis functions :   19
   total number of SCF-basis functions       :   18


 residuum convergence criterium   :  0.10E-04


 integral neglect threshold       :  0.33E-10
 integral storage threshold THIZE :  0.10E-04
 integral storage threshold THIME :         5

   THERE IS NO NEED FOR RI IN TRIPLET CALCULATIONS.
            RI-FLAG IS SWITCHED OFF
 RPA TRIPLET-EXCITATION-CALCULATION 
 
             FOUND DFT-FLAG !
 

 symmetry group of the molecule :   c2v

 the group has the following generators :
   c2(z)
   mirror plane sigma(xz)

    4 symmetry operations found

 there are 4 real representations :   a1   a2   b1   b2  

 maximum number of shells which are related by symmetry :  2

 IRREPs of excited states :   a1   a2   b1   b2  
 

 determining totally symmetric integral contributions 
    - equivalent to irreducible tensor elements - 
 which can be formed within each triple of representations :

             representation triple      contributions

              a1    a1    a1              1
              a1    a2    a2              1
              a1    b1    b1              1
              a1    b2    b2              1
              a2    a1    a2              1
              a2    a2    a1              1
              a2    b1    b2              1
              a2    b2    b1              1
              b1    a1    b1              1
              b1    a2    b2              1
              b1    b1    a1              1
              b1    b2    a2              1
              b2    a1    b2              1
              b2    a2    b1              1
              b2    b1    a2              1
              b2    b2    a1              1

    mo occupation :
   irrep   mo's   occupied
    a1       9        3
    a2       1        0
    b1       5        1
    b2       3        1
 
 number of basis functions   :                     18
 number of occupied orbitals :                      5
 
  
           ------------------
           density functional
           ------------------
 B-P86 functional
 exchange:    LDA + Becke (B88)
 correlation: LDA (VWN) + Perdew (P86)

 iterations will be done with small grid
  
 spherical integration : Lebedev's spherical grid
 spherical gridsize    :                     3
    i.e. gridpoints    :                   302
 value for diffuse not defined
 radial integration    : Chebyshev 2nd kind (scaling 3)
 radial gridsize       :                     3
 integration cells     :                     2
 partition function    : becke
 partition sharpness   :                     3
  

 biggest AO integral is expected to be     4.776656448
  MOs are in ASCII format !


 reading orbital data $scfmo  from file mos
 orbital characterization : scfconv=6
 preparing numerical integration ....
          Overall gridpoints after grid construction =          1098

 Calculating ground state density on molecular grid

 Integral of ground state density: N =   9.999336682079713    


 all orbitals will be included in the transformation

 number of non-frozen orbitals          :    18
 number of non-frozen occupied orbitals :     5



 dimension of super-tensorspace: 1

          IRREP   tensor space dimension   number of roots

           a1               24                  10
           a2                9                   9
           b1               19                  10
           b2               13                  10

 maximum number of Davidson iterations set to   25


 machine precision: 2.22D-16


 logfile trip_a1   will be constructed

 logfile trip_a2   will be constructed

 logfile trip_b1   will be constructed

 logfile trip_b2   will be constructed


                       Nonorthonormal Krylov Space Iteration


 total number of roots to be determined: 39


 maximum core memory set to   500 MB,
 corresponding to   155298 vectors in CAO basis


 maximum number of simultaneously treated vectors (including degeneracy):       58


 Iteration IRREP Converged      Max. Euclidean
                 roots          residual norm

    1       a1       0        1.246379842538027D-01
            a2       9        5.827455022082706D-14
            b1       0        9.181342702686450D-02
            b2      10        6.413985597153296D-14
 
    2       a1      10        1.158817953612014D-13
            a2       9        5.827455022082706D-14
            b1      10        1.108030991083067D-13
            b2      10        6.413985597153296D-14
 

 converged!


 Switching to fine grid

 preparing numerical integration ....
          Overall gridpoints after grid construction =          3891

 Calculating ground state density on molecular grid

 Integral of ground state density: N =   9.999998376359400    



 Iteration IRREP Converged      Max. Euclidean
                 roots          residual norm

    3       a1       0        6.403931045589771D-04
            a2       9        1.595809952782432D-13
            b1       0        5.891967531765579D-04
            b2       0        6.789825075341406D-04
 

 NOTE: Residual norms are larger than 1.00D-05 due to mgrid option!

 Eigenpairs written on logfile trip_a1  

 Eigenpairs written on logfile trip_a2  

 Eigenpairs written on logfile trip_b1  

 Eigenpairs written on logfile trip_b2  



 IRREP   Vector     Eigenvalue           Euclidean residual norm

  a1        1    1.054765993117592D-01    1.298571523389038D-04
            2    3.026035150226755D-01    1.099753008475375D-04
            3    7.902543591811588D-01    4.552137995752933D-04
            4    8.603789731953866D-01    2.827588930086102D-04
            5    9.460540353622773D-01    1.199782941257253D-04
            6    1.009430074507581D+00    6.403931045589771D-04
            7    1.224508185014478D+00    3.748379370951069D-04
            8    1.929756514017554D+00    5.798913388615560D-04
            9    2.058098513179439D+00    5.012942507316773D-04
           10    2.252781115670299D+00    4.300442087303150D-04

  a2        1    1.120757914018498D-01    2.508368377805080D-14
            2    5.842047559003376D-01    4.374464905191910D-14
            3    1.474311486523334D+00    3.863740285516732D-14
            4    1.744483154437873D+00    4.919138757904065D-14
            5    7.604340875764713D+00    4.100871980903966D-14
            6    8.869548015823149D+00    4.969325968444223D-14
            7    1.029640949249656D+01    3.368594784080491D-14
            8    1.113149192109112D+01    4.511336981420368D-14
            9    4.512592734973998D+02    1.595809952782432D-13

  b1        1    1.605557513342943D-01    8.148192106877729D-05
            2    2.371910826449197D-01    9.531705030106349D-05
            3    6.674184970669934D-01    7.109837013837191D-05
            4    9.949665001193051D-01    1.947049540433762D-04
            5    1.113096619038221D+00    8.867728228952539D-05
            6    1.646766552006544D+00    5.636374561982467D-04
            7    1.802350450133446D+00    1.206817876244669D-04
            8    2.023157412176109D+00    1.332147135232451D-04
            9    2.407355823438468D+00    5.891967531765579D-04
           10    3.593078917706846D+00    5.377754909613196D-04

  b2        1    6.456278856908781D-02    1.032939669561461D-04
            2    7.109574897929205D-01    1.761081663435824D-04
            3    1.128474455317898D+00    1.115144794122444D-04
            4    1.327964398308997D+00    8.369872521473939D-05
            5    1.677384837759846D+00    4.471310965970225D-04
            6    3.022530704247403D+00    3.789671269098259D-04
            7    7.060126475057048D+00    6.351938566880747D-04
            8    7.611270590544805D+00    5.636009799080679D-04
            9    8.452943579267457D+00    9.203960059269764D-05
           10    9.029764802246319D+00    6.789825075341406D-04
 




                    Selection rules for point group c2v 


 Subduction with respect to c2v :

    Polar vector representation: a1, b1, b2                  

    Axial vector representation: a2, b1, b2                  

    Symmetric second rank tensor representation: a1, a2, b1, b2              




                            Ground state


 Total energy:                           -76.34300618239000    

 Charge:

               elec          nuc         total

           -10.000000    10.000000    -0.000000


 Electric dipole moment:

               elec          nuc         total   

    x        0.000000     0.000000     0.000000    Norm:              0.833065
    y        0.000000     0.000000     0.000000
    z        5.912118    -5.079052     0.833065    Norm / debye:      2.117456


 Electric quadrupole moment:

               elec          nuc         total   

   xx       -7.255302     4.016539    -3.238764
   yy       -5.263846     0.000000    -5.263846    1/3*trace:        -4.613684
   zz       -9.813394     4.474951    -5.338443
   xy        0.000000     0.000000     0.000000
   xz        0.000000     0.000000     0.000000    Anisotropy:        2.063393
   yz        0.000000     0.000000     0.000000



 ==============================================================================

                              I R R E P   a1  

 ==============================================================================


 Excitation is electric dipole allowed

 Excitation is magnetic dipole forbidden

 Excitation is electric quadrupole allowed




                         1 triplet a1 excitation


 Total energy:                           -76.01823457138966    

 Excitation energy:                      0.3247716110003447    

 Excitation energy / eV:                  8.837488971699511    

 Excitation energy / nm:                  140.2935204824649    

 Excitation energy / cm^(-1):             71279.12938614472    


 Oscillator strength:

    velocity representation:             0.2354871376780036    

    length representation:               0.1312905680546845    

    mixed representation:                0.1758329891553823    


 Rotatory strength:

    velocity representation:              0.000000000000000    

    velocity rep. / 10^(-40)erg*cm^3:     0.000000000000000    

    length representation:                0.000000000000000    

    length rep. / 10^(-40)erg*cm^3:       0.000000000000000    


 Dominant contributions:

      occ. orbital   energy / eV   virt. orbital     energy / eV   |coeff.|^2*100
        3 a1             -8.44           4 a1              0.92       99.6
 

 S^2 expectation value:                     2.00664789


 Change of electron number:

            -0.000000


 Electric transition dipole moment (velocity rep.):

    x        0.000000        Norm:                  1.042894
    y        0.000000
    z        1.042894        Norm / debye:          2.650792


 Electric transition dipole moment (length rep.):

    x        0.000000        Norm:                  0.778706
    y        0.000000
    z        0.778706        Norm / debye:          1.979287


 Magnetic transition dipole moment / i:

    x        0.000000        Norm:                  0.000000
    y        0.000000
    z        0.000000        Norm / Bohr mag.:      0.000000


 Electric quadrupole transition moment:

   xx        1.161948
   yy        0.265554        1/3*trace:             0.438058
   zz       -0.113328
   xy        0.000000
   xz        0.000000        Anisotropy:            1.134329
   yz        0.000000




                         2 triplet a1 excitation


 Total energy:                           -75.79291208587316    

 Excitation energy:                      0.5500940965168373    

 Excitation energy / eV:                  14.96882839109788    

 Excitation energy / nm:                  82.82828873915282    

 Excitation energy / cm^(-1):             120731.6986832830    


 Oscillator strength:

    velocity representation:             0.1462768909394933    

    length representation:               0.1745015798301571    

    mixed representation:                0.1597671698490812    


 Rotatory strength:

    velocity representation:              0.000000000000000    

    velocity rep. / 10^(-40)erg*cm^3:     0.000000000000000    

    length representation:                0.000000000000000    

    length rep. / 10^(-40)erg*cm^3:       0.000000000000000    


 Dominant contributions:

      occ. orbital   energy / eV   virt. orbital     energy / eV   |coeff.|^2*100
        1 b1            -13.01           2 b1              3.09       98.8
 

 S^2 expectation value:                     2.01035056


 Change of electron number:

            -0.000000


 Electric transition dipole moment (velocity rep.):

    x        0.000000        Norm:                  0.631561
    y        0.000000
    z       -0.631561        Norm / debye:          1.605279


 Electric transition dipole moment (length rep.):

    x        0.000000        Norm:                  0.689806
    y        0.000000
    z       -0.689806        Norm / debye:          1.753325


 Magnetic transition dipole moment / i:

    x        0.000000        Norm:                  0.000000
    y        0.000000
    z        0.000000        Norm / Bohr mag.:      0.000000


 Electric quadrupole transition moment:

   xx       -2.392999
   yy       -0.540261        1/3*trace:            -1.084344
   zz       -0.319771
   xy        0.000000
   xz        0.000000        Anisotropy:            1.972248
   yz        0.000000




                         3 triplet a1 excitation


 Total energy:                           -75.45404366395564    

 Excitation energy:                      0.8889625184343595    

 Excitation energy / eV:                  24.18991126939828    

 Excitation energy / nm:                  51.25452616410213    

 Excitation energy / cm^(-1):             195104.7204395230    


 Oscillator strength:

    velocity representation:             0.5990395388754310E-01

    length representation:               0.9085652092210909E-01

    mixed representation:                0.7377441859954315E-01


 Rotatory strength:

    velocity representation:              0.000000000000000    

    velocity rep. / 10^(-40)erg*cm^3:     0.000000000000000    

    length representation:                0.000000000000000    

    length rep. / 10^(-40)erg*cm^3:       0.000000000000000    


 Dominant contributions:

      occ. orbital   energy / eV   virt. orbital     energy / eV   |coeff.|^2*100
        3 a1             -8.44           5 a1             17.22       59.2
        2 a1            -24.72           4 a1              0.92       25.5
        1 b1            -13.01           3 b1             14.80       12.4
 

 S^2 expectation value:                     2.01061132


 Change of electron number:

            -0.000000


 Electric transition dipole moment (velocity rep.):

    x        0.000000        Norm:                  0.317930
    y        0.000000
    z        0.317930        Norm / debye:          0.808104


 Electric transition dipole moment (length rep.):

    x        0.000000        Norm:                  0.391545
    y        0.000000
    z        0.391545        Norm / debye:          0.995216


 Magnetic transition dipole moment / i:

    x        0.000000        Norm:                  0.000000
    y        0.000000
    z        0.000000        Norm / Bohr mag.:      0.000000


 Electric quadrupole transition moment:

   xx        0.974121
   yy        0.189213        1/3*trace:             0.401003
   zz        0.039674
   xy        0.000000
   xz        0.000000        Anisotropy:            0.869377
   yz        0.000000




                         4 triplet a1 excitation


 Total energy:                           -75.41544002669252    

 Excitation energy:                      0.9275661556974718    

 Excitation energy / eV:                  25.24037013656781    

 Excitation energy / nm:                  49.12140485089088    

 Excitation energy / cm^(-1):             203577.2394715213    


 Oscillator strength:

    velocity representation:             0.1570868286936383E-02

    length representation:               0.4402618796777442E-02

    mixed representation:                0.2629816390421145E-02


 Rotatory strength:

    velocity representation:              0.000000000000000    

    velocity rep. / 10^(-40)erg*cm^3:     0.000000000000000    

    length representation:                0.000000000000000    

    length rep. / 10^(-40)erg*cm^3:       0.000000000000000    


 Dominant contributions:

      occ. orbital   energy / eV   virt. orbital     energy / eV   |coeff.|^2*100
        2 a1            -24.72           4 a1              0.92       70.8
        3 a1             -8.44           5 a1             17.22       24.8
 

 S^2 expectation value:                     2.00138504


 Change of electron number:

             0.000000


 Electric transition dipole moment (velocity rep.):

    x        0.000000        Norm:                  0.050401
    y        0.000000
    z        0.050401        Norm / debye:          0.128109


 Electric transition dipole moment (length rep.):

    x        0.000000        Norm:                  0.084378
    y        0.000000
    z        0.084378        Norm / debye:          0.214469


 Magnetic transition dipole moment / i:

    x        0.000000        Norm:                  0.000000
    y        0.000000
    z        0.000000        Norm / Bohr mag.:      0.000000


 Electric quadrupole transition moment:

   xx       -0.760931
   yy       -0.665708        1/3*trace:            -0.774596
   zz       -0.897150
   xy        0.000000
   xz        0.000000        Anisotropy:            0.201480
   yz        0.000000




                         5 triplet a1 excitation


 Total energy:                           -75.37035309142577    

 Excitation energy:                      0.9726530909642334    

 Excitation energy / eV:                  26.46724859420280    

 Excitation energy / nm:                  46.84440226764823    

 Excitation energy / cm^(-1):             213472.6779385886    


 Oscillator strength:

    velocity representation:             0.1846110572377730    

    length representation:               0.2839925043076063    

    mixed representation:                0.2289719556361215    


 Rotatory strength:

    velocity representation:              0.000000000000000    

    velocity rep. / 10^(-40)erg*cm^3:     0.000000000000000    

    length representation:                0.000000000000000    

    length rep. / 10^(-40)erg*cm^3:       0.000000000000000    


 Dominant contributions:

      occ. orbital   energy / eV   virt. orbital     energy / eV   |coeff.|^2*100
        1 b1            -13.01           3 b1             14.80       84.1
        3 a1             -8.44           5 a1             17.22       15.1
 

 S^2 expectation value:                     2.00319738


 Change of electron number:

             0.000000


 Electric transition dipole moment (velocity rep.):

    x        0.000000        Norm:                  0.533575
    y        0.000000
    z       -0.533575        Norm / debye:          1.356223


 Electric transition dipole moment (length rep.):

    x        0.000000        Norm:                  0.661790
    y        0.000000
    z       -0.661790        Norm / debye:          1.682115


 Magnetic transition dipole moment / i:

    x        0.000000        Norm:                  0.000000
    y        0.000000
    z        0.000000        Norm / Bohr mag.:      0.000000


 Electric quadrupole transition moment:

   xx        0.451901
   yy        0.432219        1/3*trace:             0.522393
   zz        0.683061
   xy        0.000000
   xz        0.000000        Anisotropy:            0.241603
   yz        0.000000




                         6 triplet a1 excitation


 Total energy:                           -75.33830220881988    

 Excitation energy:                       1.004703973570116    

 Excitation energy / eV:                  27.33939785838965    

 Excitation energy / nm:                  45.35002733003545    

 Excitation energy / cm^(-1):             220507.0335621239    


 Oscillator strength:

    velocity representation:             0.4724399407452847E-02

    length representation:               0.7296856026968795E-02

    mixed representation:                0.5871393556054654E-02


 Rotatory strength:

    velocity representation:              0.000000000000000    

    velocity rep. / 10^(-40)erg*cm^3:     0.000000000000000    

    length representation:                0.000000000000000    

    length rep. / 10^(-40)erg*cm^3:       0.000000000000000    


 Dominant contributions:

      occ. orbital   energy / eV   virt. orbital     energy / eV   |coeff.|^2*100
        1 b2             -6.40           2 b2             23.42       92.3
 

 S^2 expectation value:                     2.00929992


 Change of electron number:

             0.000000


 Electric transition dipole moment (velocity rep.):

    x        0.000000        Norm:                  0.083985
    y        0.000000
    z       -0.083985        Norm / debye:          0.213469


 Electric transition dipole moment (length rep.):

    x        0.000000        Norm:                  0.104375
    y        0.000000
    z       -0.104375        Norm / debye:          0.265296


 Magnetic transition dipole moment / i:

    x        0.000000        Norm:                  0.000000
    y        0.000000
    z        0.000000        Norm / Bohr mag.:      0.000000


 Electric quadrupole transition moment:

   xx        0.512076
   yy        1.833383        1/3*trace:             1.104243
   zz        0.967269
   xy        0.000000
   xz        0.000000        Anisotropy:            1.162584
   yz        0.000000




                         7 triplet a1 excitation


 Total energy:                           -75.23643120299887    

 Excitation energy:                       1.106574979391129    

 Excitation energy / eV:                  30.11145015602160    

 Excitation energy / nm:                  41.17511556701773    

 Excitation energy / cm^(-1):             242865.1349437282    


 Oscillator strength:

    velocity representation:             0.7926733986443725E-01

    length representation:               0.5343841624193738E-01

    mixed representation:                0.6508395425960928E-01


 Rotatory strength:

    velocity representation:              0.000000000000000    

    velocity rep. / 10^(-40)erg*cm^3:     0.000000000000000    

    length representation:                0.000000000000000    

    length rep. / 10^(-40)erg*cm^3:       0.000000000000000    


 Dominant contributions:

      occ. orbital   energy / eV   virt. orbital     energy / eV   |coeff.|^2*100
        3 a1             -8.44           6 a1             23.83       94.5
 

 S^2 expectation value:                     2.00520814


 Change of electron number:

            -0.000000


 Electric transition dipole moment (velocity rep.):

    x        0.000000        Norm:                  0.327795
    y        0.000000
    z       -0.327795        Norm / debye:          0.833178


 Electric transition dipole moment (length rep.):

    x        0.000000        Norm:                  0.269142
    y        0.000000
    z       -0.269142        Norm / debye:          0.684097


 Magnetic transition dipole moment / i:

    x        0.000000        Norm:                  0.000000
    y        0.000000
    z        0.000000        Norm / Bohr mag.:      0.000000


 Electric quadrupole transition moment:

   xx        0.279762
   yy        0.234507        1/3*trace:             0.797571
   zz        1.878445
   xy        0.000000
   xz        0.000000        Anisotropy:            1.621784
   yz        0.000000




                         8 triplet a1 excitation


 Total energy:                           -74.95384941873172    

 Excitation energy:                       1.389156763658283    

 Excitation energy / eV:                  37.80089503814059    

 Excitation energy / nm:                  32.79928792198437    

 Excitation energy / cm^(-1):             304884.6676883088    


 Oscillator strength:

    velocity representation:             0.2793893104458746E-01

    length representation:               0.4812355457266811E-01

    mixed representation:                0.3666770612986604E-01


 Rotatory strength:

    velocity representation:              0.000000000000000    

    velocity rep. / 10^(-40)erg*cm^3:     0.000000000000000    

    length representation:                0.000000000000000    

    length rep. / 10^(-40)erg*cm^3:       0.000000000000000    


 Dominant contributions:

      occ. orbital   energy / eV   virt. orbital     energy / eV   |coeff.|^2*100
        3 a1             -8.44           7 a1             30.18       99.0
 

 S^2 expectation value:                     2.00103885


 Change of electron number:

            -0.000000


 Electric transition dipole moment (velocity rep.):

    x        0.000000        Norm:                  0.173690
    y        0.000000
    z        0.173690        Norm / debye:          0.441479


 Electric transition dipole moment (length rep.):

    x        0.000000        Norm:                  0.227955
    y        0.000000
    z        0.227955        Norm / debye:          0.579408


 Magnetic transition dipole moment / i:

    x        0.000000        Norm:                  0.000000
    y        0.000000
    z        0.000000        Norm / Bohr mag.:      0.000000


 Electric quadrupole transition moment:

   xx       -0.539197
   yy       -0.125970        1/3*trace:            -0.270919
   zz       -0.147591
   xy        0.000000
   xz        0.000000        Anisotropy:            0.402851
   yz        0.000000




                         9 triplet a1 excitation


 Total energy:                           -74.90839874020261    

 Excitation energy:                       1.434607442187388    

 Excitation energy / eV:                  39.03767145779138    

 Excitation energy / nm:                  31.76015355847327    

 Excitation energy / cm^(-1):             314859.9385735485    


 Oscillator strength:

    velocity representation:             0.3118780229428904E-01

    length representation:               0.4406396656324649E-01

    mixed representation:                0.3707098970187732E-01


 Rotatory strength:

    velocity representation:              0.000000000000000    

    velocity rep. / 10^(-40)erg*cm^3:     0.000000000000000    

    length representation:                0.000000000000000    

    length rep. / 10^(-40)erg*cm^3:       0.000000000000000    


 Dominant contributions:

      occ. orbital   energy / eV   virt. orbital     energy / eV   |coeff.|^2*100
        1 b1            -13.01           4 b1             27.75       95.8
 

 S^2 expectation value:                     2.00332546


 Change of electron number:

             0.000000


 Electric transition dipole moment (velocity rep.):

    x        0.000000        Norm:                  0.180581
    y        0.000000
    z       -0.180581        Norm / debye:          0.458994


 Electric transition dipole moment (length rep.):

    x        0.000000        Norm:                  0.214645
    y        0.000000
    z       -0.214645        Norm / debye:          0.545577


 Magnetic transition dipole moment / i:

    x        0.000000        Norm:                  0.000000
    y        0.000000
    z        0.000000        Norm / Bohr mag.:      0.000000


 Electric quadrupole transition moment:

   xx        0.780018
   yy        0.182653        1/3*trace:             0.406889
   zz        0.257997
   xy        0.000000
   xz        0.000000        Anisotropy:            0.563484
   yz        0.000000




                        10 triplet a1 excitation


 Total energy:                           -74.84207943012315    

 Excitation energy:                       1.500926752266845    

 Excitation energy / eV:                  40.84231247808457    

 Excitation energy / nm:                  30.35681294319380    

 Excitation energy / cm^(-1):             329415.3446615162    


 Oscillator strength:

    velocity representation:             0.9495813893016734E-02

    length representation:               0.9422899864758100E-02

    mixed representation:                0.9459286624702492E-02


 Rotatory strength:

    velocity representation:              0.000000000000000    

    velocity rep. / 10^(-40)erg*cm^3:     0.000000000000000    

    length representation:                0.000000000000000    

    length rep. / 10^(-40)erg*cm^3:       0.000000000000000    


 Dominant contributions:

      occ. orbital   energy / eV   virt. orbital     energy / eV   |coeff.|^2*100
        2 a1            -24.72           5 a1             17.22       95.7
 

 S^2 expectation value:                     2.00208717


 Change of electron number:

             0.000000


 Electric transition dipole moment (velocity rep.):

    x        0.000000        Norm:                  0.097416
    y        0.000000
    z        0.097416        Norm / debye:          0.247610


 Electric transition dipole moment (length rep.):

    x        0.000000        Norm:                  0.097042
    y        0.000000
    z        0.097042        Norm / debye:          0.246657


 Magnetic transition dipole moment / i:

    x        0.000000        Norm:                  0.000000
    y        0.000000
    z        0.000000        Norm / Bohr mag.:      0.000000


 Electric quadrupole transition moment:

   xx        0.713070
   yy       -0.439171        1/3*trace:             0.100731
   zz        0.028293
   xy        0.000000
   xz        0.000000        Anisotropy:            1.003769
   yz        0.000000



 ==============================================================================

                              I R R E P   a2  

 ==============================================================================


 Excitation is electric dipole forbidden

 Excitation is magnetic dipole allowed

 Excitation is electric quadrupole allowed




                         1 triplet a2 excitation


 Total energy:                           -76.00822895586190    

 Excitation energy:                      0.3347772265281044    

 Excitation energy / eV:                  9.109755739750083    

 Excitation energy / nm:                  136.1005141613925    

 Excitation energy / cm^(-1):             73475.10815902597    


 Oscillator strength:

    velocity representation:              0.000000000000000    

    length representation:                0.000000000000000    

    mixed representation:                 0.000000000000000    


 Rotatory strength:

    velocity representation:              0.000000000000000    

    velocity rep. / 10^(-40)erg*cm^3:     0.000000000000000    

    length representation:                0.000000000000000    

    length rep. / 10^(-40)erg*cm^3:       0.000000000000000    


 Dominant contributions:

      occ. orbital   energy / eV   virt. orbital     energy / eV   |coeff.|^2*100
        1 b2             -6.40           2 b1              3.09       99.9
 

 S^2 expectation value:                     2.00277726


 Change of electron number:

             0.000000


 Electric transition dipole moment (velocity rep.):

    x        0.000000        Norm:                  0.000000
    y        0.000000
    z        0.000000        Norm / debye:          0.000000


 Electric transition dipole moment (length rep.):

    x        0.000000        Norm:                  0.000000
    y        0.000000
    z        0.000000        Norm / debye:          0.000000


 Magnetic transition dipole moment / i:

    x        0.000000        Norm:                  0.001046
    y        0.000000
    z       -0.001046        Norm / Bohr mag.:      0.286723


 Electric quadrupole transition moment:

   xx        0.000000
   yy        0.000000        1/3*trace:             0.000000
   zz        0.000000
   xy       -0.282664
   xz        0.000000        Anisotropy:            0.489588
   yz        0.000000




                         2 triplet a2 excitation


 Total energy:                           -75.57867329947815    

 Excitation energy:                      0.7643328829118485    

 Excitation energy / eV:                  20.79856488267253    

 Excitation energy / nm:                  59.61192260421809    

 Excitation energy / cm^(-1):             167751.6772089443    


 Oscillator strength:

    velocity representation:              0.000000000000000    

    length representation:                0.000000000000000    

    mixed representation:                 0.000000000000000    


 Rotatory strength:

    velocity representation:              0.000000000000000    

    velocity rep. / 10^(-40)erg*cm^3:     0.000000000000000    

    length representation:                0.000000000000000    

    length rep. / 10^(-40)erg*cm^3:       0.000000000000000    


 Dominant contributions:

      occ. orbital   energy / eV   virt. orbital     energy / eV   |coeff.|^2*100
        1 b2             -6.40           3 b1             14.80       99.9
 

 S^2 expectation value:                     2.00080013


 Change of electron number:

             0.000000


 Electric transition dipole moment (velocity rep.):

    x        0.000000        Norm:                  0.000000
    y        0.000000
    z        0.000000        Norm / debye:          0.000000


 Electric transition dipole moment (length rep.):

    x        0.000000        Norm:                  0.000000
    y        0.000000
    z        0.000000        Norm / debye:          0.000000


 Magnetic transition dipole moment / i:

    x        0.000000        Norm:                  0.001276
    y        0.000000
    z        0.001276        Norm / Bohr mag.:      0.349708


 Electric quadrupole transition moment:

   xx        0.000000
   yy        0.000000        1/3*trace:             0.000000
   zz        0.000000
   xy       -0.467246
   xz        0.000000        Anisotropy:            0.809293
   yz        0.000000




                         3 triplet a2 excitation


 Total energy:                           -75.12879389183973    

 Excitation energy:                       1.214212290550270    

 Excitation energy / eV:                  33.04041167264655    

 Excitation energy / nm:                  37.52503002531056    

 Excitation energy / cm^(-1):             266488.7940599216    


 Oscillator strength:

    velocity representation:              0.000000000000000    

    length representation:                0.000000000000000    

    mixed representation:                 0.000000000000000    


 Rotatory strength:

    velocity representation:              0.000000000000000    

    velocity rep. / 10^(-40)erg*cm^3:     0.000000000000000    

    length representation:                0.000000000000000    

    length rep. / 10^(-40)erg*cm^3:       0.000000000000000    


 Dominant contributions:

      occ. orbital   energy / eV   virt. orbital     energy / eV   |coeff.|^2*100
        1 b2             -6.40           4 b1             27.75       92.9
 

 S^2 expectation value:                     2.00217054


 Change of electron number:

             0.000000


 Electric transition dipole moment (velocity rep.):

    x        0.000000        Norm:                  0.000000
    y        0.000000
    z        0.000000        Norm / debye:          0.000000


 Electric transition dipole moment (length rep.):

    x        0.000000        Norm:                  0.000000
    y        0.000000
    z        0.000000        Norm / debye:          0.000000


 Magnetic transition dipole moment / i:

    x        0.000000        Norm:                  0.000056
    y        0.000000
    z        0.000056        Norm / Bohr mag.:      0.015215


 Electric quadrupole transition moment:

   xx        0.000000
   yy        0.000000        1/3*trace:             0.000000
   zz        0.000000
   xy        0.599555
   xz        0.000000        Anisotropy:            1.038459
   yz        0.000000




                         4 triplet a2 excitation


 Total energy:                           -75.02221734444585    

 Excitation energy:                       1.320788837944156    

 Excitation energy / eV:                  35.94050832621235    

 Excitation energy / nm:                  34.49707580124664    

 Excitation energy / cm^(-1):             289879.6424404758    


 Oscillator strength:

    velocity representation:              0.000000000000000    

    length representation:                0.000000000000000    

    mixed representation:                 0.000000000000000    


 Rotatory strength:

    velocity representation:              0.000000000000000    

    velocity rep. / 10^(-40)erg*cm^3:     0.000000000000000    

    length representation:                0.000000000000000    

    length rep. / 10^(-40)erg*cm^3:       0.000000000000000    


 Dominant contributions:

      occ. orbital   energy / eV   virt. orbital     energy / eV   |coeff.|^2*100
        1 b1            -13.01           2 b2             23.42       92.9
 

 S^2 expectation value:                     2.00056588


 Change of electron number:

             0.000000


 Electric transition dipole moment (velocity rep.):

    x        0.000000        Norm:                  0.000000
    y        0.000000
    z        0.000000        Norm / debye:          0.000000


 Electric transition dipole moment (length rep.):

    x        0.000000        Norm:                  0.000000
    y        0.000000
    z        0.000000        Norm / debye:          0.000000


 Magnetic transition dipole moment / i:

    x        0.000000        Norm:                  0.000574
    y        0.000000
    z        0.000574        Norm / Bohr mag.:      0.157211


 Electric quadrupole transition moment:

   xx        0.000000
   yy        0.000000        1/3*trace:             0.000000
   zz        0.000000
   xy        0.431229
   xz        0.000000        Anisotropy:            0.746911
   yz        0.000000




                         5 triplet a2 excitation


 Total energy:                           -73.58540924379206    

 Excitation energy:                       2.757596938597937    

 Excitation energy / eV:                  75.03806277336761    

 Excitation energy / nm:                  16.52284712905363    

 Excitation energy / cm^(-1):             605222.5697182327    


 Oscillator strength:

    velocity representation:              0.000000000000000    

    length representation:                0.000000000000000    

    mixed representation:                 0.000000000000000    


 Rotatory strength:

    velocity representation:              0.000000000000000    

    velocity rep. / 10^(-40)erg*cm^3:     0.000000000000000    

    length representation:                0.000000000000000    

    length rep. / 10^(-40)erg*cm^3:       0.000000000000000    


 Dominant contributions:

      occ. orbital   energy / eV   virt. orbital     energy / eV   |coeff.|^2*100
        3 a1             -8.44           1 a2             67.90       97.7
 

 S^2 expectation value:                     2.00076842


 Change of electron number:

             0.000000


 Electric transition dipole moment (velocity rep.):

    x        0.000000        Norm:                  0.000000
    y        0.000000
    z        0.000000        Norm / debye:          0.000000


 Electric transition dipole moment (length rep.):

    x        0.000000        Norm:                  0.000000
    y        0.000000
    z        0.000000        Norm / debye:          0.000000


 Magnetic transition dipole moment / i:

    x        0.000000        Norm:                  0.000514
    y        0.000000
    z       -0.000514        Norm / Bohr mag.:      0.140868


 Electric quadrupole transition moment:

   xx        0.000000
   yy        0.000000        1/3*trace:             0.000000
   zz        0.000000
   xy        0.157209
   xz        0.000000        Anisotropy:            0.272295
   yz        0.000000




                         6 triplet a2 excitation


 Total energy:                           -73.36482754170655    

 Excitation energy:                       2.978178640683455    

 Excitation energy / eV:                  81.04039885666955    

 Excitation energy / nm:                  15.29906636142679    

 Excitation energy / cm^(-1):             653634.6573226292    


 Oscillator strength:

    velocity representation:              0.000000000000000    

    length representation:                0.000000000000000    

    mixed representation:                 0.000000000000000    


 Rotatory strength:

    velocity representation:              0.000000000000000    

    velocity rep. / 10^(-40)erg*cm^3:     0.000000000000000    

    length representation:                0.000000000000000    

    length rep. / 10^(-40)erg*cm^3:       0.000000000000000    


 Dominant contributions:

      occ. orbital   energy / eV   virt. orbital     energy / eV   |coeff.|^2*100
        1 b1            -13.01           3 b2             68.79       96.7
 

 S^2 expectation value:                     2.00028703


 Change of electron number:

             0.000000


 Electric transition dipole moment (velocity rep.):

    x        0.000000        Norm:                  0.000000
    y        0.000000
    z        0.000000        Norm / debye:          0.000000


 Electric transition dipole moment (length rep.):

    x        0.000000        Norm:                  0.000000
    y        0.000000
    z        0.000000        Norm / debye:          0.000000


 Magnetic transition dipole moment / i:

    x        0.000000        Norm:                  0.000644
    y        0.000000
    z        0.000644        Norm / Bohr mag.:      0.176604


 Electric quadrupole transition moment:

   xx        0.000000
   yy        0.000000        1/3*trace:             0.000000
   zz        0.000000
   xy        0.110572
   xz        0.000000        Anisotropy:            0.191517
   yz        0.000000




                         7 triplet a2 excitation


 Total energy:                           -73.13420430435256    

 Excitation energy:                       3.208801878037433    

 Excitation energy / eV:                  87.31597913431662    

 Excitation energy / nm:                  14.19949077313164    

 Excitation energy / cm^(-1):             704250.6071717321    


 Oscillator strength:

    velocity representation:              0.000000000000000    

    length representation:                0.000000000000000    

    mixed representation:                 0.000000000000000    


 Rotatory strength:

    velocity representation:              0.000000000000000    

    velocity rep. / 10^(-40)erg*cm^3:     0.000000000000000    

    length representation:                0.000000000000000    

    length rep. / 10^(-40)erg*cm^3:       0.000000000000000    


 Dominant contributions:

      occ. orbital   energy / eV   virt. orbital     energy / eV   |coeff.|^2*100
        1 b2             -6.40           5 b1             81.78       97.4
 

 S^2 expectation value:                     2.00024438


 Change of electron number:

             0.000000


 Electric transition dipole moment (velocity rep.):

    x        0.000000        Norm:                  0.000000
    y        0.000000
    z        0.000000        Norm / debye:          0.000000


 Electric transition dipole moment (length rep.):

    x        0.000000        Norm:                  0.000000
    y        0.000000
    z        0.000000        Norm / debye:          0.000000


 Magnetic transition dipole moment / i:

    x        0.000000        Norm:                  0.000115
    y        0.000000
    z       -0.000115        Norm / Bohr mag.:      0.031521


 Electric quadrupole transition moment:

   xx        0.000000
   yy        0.000000        1/3*trace:             0.000000
   zz        0.000000
   xy        0.238661
   xz        0.000000        Anisotropy:            0.413374
   yz        0.000000




                         8 triplet a2 excitation


 Total energy:                           -73.00661712817418    

 Excitation energy:                       3.336389054215818    

 Excitation energy / eV:                  90.78780433151823    

 Excitation energy / nm:                  13.65648667454617    

 Excitation energy / cm^(-1):             732252.7555455389    


 Oscillator strength:

    velocity representation:              0.000000000000000    

    length representation:                0.000000000000000    

    mixed representation:                 0.000000000000000    


 Rotatory strength:

    velocity representation:              0.000000000000000    

    velocity rep. / 10^(-40)erg*cm^3:     0.000000000000000    

    length representation:                0.000000000000000    

    length rep. / 10^(-40)erg*cm^3:       0.000000000000000    


 Dominant contributions:

      occ. orbital   energy / eV   virt. orbital     energy / eV   |coeff.|^2*100
        2 a1            -24.72           1 a2             67.90       99.0
 

 S^2 expectation value:                     2.00070424


 Change of electron number:

             0.000000


 Electric transition dipole moment (velocity rep.):

    x        0.000000        Norm:                  0.000000
    y        0.000000
    z        0.000000        Norm / debye:          0.000000


 Electric transition dipole moment (length rep.):

    x        0.000000        Norm:                  0.000000
    y        0.000000
    z        0.000000        Norm / debye:          0.000000


 Magnetic transition dipole moment / i:

    x        0.000000        Norm:                  0.000688
    y        0.000000
    z        0.000688        Norm / Bohr mag.:      0.188474


 Electric quadrupole transition moment:

   xx        0.000000
   yy        0.000000        1/3*trace:             0.000000
   zz        0.000000
   xy        0.458120
   xz        0.000000        Anisotropy:            0.793486
   yz        0.000000




                         9 triplet a2 excitation


 Total energy:                           -55.10014212178368    

 Excitation energy:                       21.24286406060633    

 Excitation energy / eV:                  578.0479897386136    

 Excitation energy / nm:                  2.144878041398129    

 Excitation energy / cm^(-1):             4662269.744711876    


 Oscillator strength:

    velocity representation:              0.000000000000000    

    length representation:                0.000000000000000    

    mixed representation:                 0.000000000000000    


 Rotatory strength:

    velocity representation:              0.000000000000000    

    velocity rep. / 10^(-40)erg*cm^3:     0.000000000000000    

    length representation:                0.000000000000000    

    length rep. / 10^(-40)erg*cm^3:       0.000000000000000    


 Dominant contributions:

      occ. orbital   energy / eV   virt. orbital     energy / eV   |coeff.|^2*100
        1 a1           -510.23           1 a2             67.90      100.0
 

 S^2 expectation value:                     2.00000112


 Change of electron number:

             0.000000


 Electric transition dipole moment (velocity rep.):

    x        0.000000        Norm:                  0.000000
    y        0.000000
    z        0.000000        Norm / debye:          0.000000


 Electric transition dipole moment (length rep.):

    x        0.000000        Norm:                  0.000000
    y        0.000000
    z        0.000000        Norm / debye:          0.000000


 Magnetic transition dipole moment / i:

    x        0.000000        Norm:                  0.000003
    y        0.000000
    z        0.000003        Norm / Bohr mag.:      0.000698


 Electric quadrupole transition moment:

   xx        0.000000
   yy        0.000000        1/3*trace:             0.000000
   zz        0.000000
   xy        0.015409
   xz        0.000000        Anisotropy:            0.026688
   yz        0.000000



 ==============================================================================

                              I R R E P   b1  

 ==============================================================================


 Excitation is electric dipole allowed

 Excitation is magnetic dipole allowed

 Excitation is electric quadrupole allowed




                         1 triplet b1 excitation


 Total energy:                           -75.94231209541803    

 Excitation energy:                      0.4006940869719621    

 Excitation energy / eV:                  10.90344554357050    

 Excitation energy / nm:                  113.7110682224473    

 Excitation energy / cm^(-1):             87942.18676184508    


 Oscillator strength:

    velocity representation:             0.2112654678173672    

    length representation:               0.2262320143649435    

    mixed representation:                0.2186207043033096    


 Rotatory strength:

    velocity representation:              0.000000000000000    

    velocity rep. / 10^(-40)erg*cm^3:     0.000000000000000    

    length representation:                0.000000000000000    

    length rep. / 10^(-40)erg*cm^3:       0.000000000000000    


 Dominant contributions:

      occ. orbital   energy / eV   virt. orbital     energy / eV   |coeff.|^2*100
        3 a1             -8.44           2 b1              3.09       97.4
 

 S^2 expectation value:                     2.00688146


 Change of electron number:

             0.000000


 Electric transition dipole moment (velocity rep.):

    x        0.889311        Norm:                  0.889311
    y        0.000000
    z        0.000000        Norm / debye:          2.260419


 Electric transition dipole moment (length rep.):

    x        0.920272        Norm:                  0.920272
    y        0.000000
    z        0.000000        Norm / debye:          2.339116


 Magnetic transition dipole moment / i:

    x        0.000000        Norm:                  0.001742
    y       -0.001742
    z        0.000000        Norm / Bohr mag.:      0.477392


 Electric quadrupole transition moment:

   xx        0.000000
   yy        0.000000        1/3*trace:             0.000000
   zz        0.000000
   xy        0.000000
   xz        0.372272        Anisotropy:            0.644795
   yz        0.000000




                         2 triplet b1 excitation


 Total energy:                           -75.85598351079769    

 Excitation energy:                      0.4870226715923189    

 Excitation energy / eV:                  13.25256686047040    

 Excitation energy / nm:                  93.55489039356377    

 Excitation energy / cm^(-1):             106889.1209902516    


 Oscillator strength:

    velocity representation:             0.2875884246579410    

    length representation:               0.2778011265943364    

    mixed representation:                0.2826524161677492    


 Rotatory strength:

    velocity representation:              0.000000000000000    

    velocity rep. / 10^(-40)erg*cm^3:     0.000000000000000    

    length representation:                0.000000000000000    

    length rep. / 10^(-40)erg*cm^3:       0.000000000000000    


 Dominant contributions:

      occ. orbital   energy / eV   virt. orbital     energy / eV   |coeff.|^2*100
        1 b1            -13.01           4 a1              0.92       97.3
 

 S^2 expectation value:                     2.00529034


 Change of electron number:

             0.000000


 Electric transition dipole moment (velocity rep.):

    x        0.941145        Norm:                  0.941145
    y        0.000000
    z        0.000000        Norm / debye:          2.392171


 Electric transition dipole moment (length rep.):

    x        0.924992        Norm:                  0.924992
    y        0.000000
    z        0.000000        Norm / debye:          2.351113


 Magnetic transition dipole moment / i:

    x        0.000000        Norm:                  0.000309
    y       -0.000309
    z        0.000000        Norm / Bohr mag.:      0.084823


 Electric quadrupole transition moment:

   xx        0.000000
   yy        0.000000        1/3*trace:             0.000000
   zz        0.000000
   xy        0.000000
   xz        0.319129        Anisotropy:            0.552748
   yz        0.000000




                         3 triplet b1 excitation


 Total energy:                           -75.52604933097923    

 Excitation energy:                      0.8169568514107666    

 Excitation energy / eV:                  22.23053653753419    

 Excitation energy / nm:                  55.77204301710508    

 Excitation energy / cm^(-1):             179301.3032612128    


 Oscillator strength:

    velocity representation:             0.2648246542397351    

    length representation:               0.3581583254905434    

    mixed representation:                0.3079758995621503    


 Rotatory strength:

    velocity representation:              0.000000000000000    

    velocity rep. / 10^(-40)erg*cm^3:     0.000000000000000    

    length representation:                0.000000000000000    

    length rep. / 10^(-40)erg*cm^3:       0.000000000000000    


 Dominant contributions:

      occ. orbital   energy / eV   virt. orbital     energy / eV   |coeff.|^2*100
        3 a1             -8.44           3 b1             14.80       98.5
 

 S^2 expectation value:                     2.00441305


 Change of electron number:

             0.000000


 Electric transition dipole moment (velocity rep.):

    x        0.697309        Norm:                  0.697309
    y        0.000000
    z        0.000000        Norm / debye:          1.772396


 Electric transition dipole moment (length rep.):

    x        0.810930        Norm:                  0.810930
    y        0.000000
    z        0.000000        Norm / debye:          2.061195


 Magnetic transition dipole moment / i:

    x        0.000000        Norm:                  0.002865
    y       -0.002865
    z        0.000000        Norm / Bohr mag.:      0.785318


 Electric quadrupole transition moment:

   xx        0.000000
   yy        0.000000        1/3*trace:             0.000000
   zz        0.000000
   xy        0.000000
   xz       -0.556725        Anisotropy:            0.964277
   yz        0.000000




                         4 triplet b1 excitation


 Total energy:                           -75.34552610734123    

 Excitation energy:                      0.9974800750487727    

 Excitation energy / eV:                  27.14282549383348    

 Excitation energy / nm:                  45.67845894843778    

 Excitation energy / cm^(-1):             218921.5711019377    


 Oscillator strength:

    velocity representation:             0.6036141492199583E-01

    length representation:               0.8414325973956303E-01

    mixed representation:                0.7126714680713007E-01


 Rotatory strength:

    velocity representation:              0.000000000000000    

    velocity rep. / 10^(-40)erg*cm^3:     0.000000000000000    

    length representation:                0.000000000000000    

    length rep. / 10^(-40)erg*cm^3:       0.000000000000000    


 Dominant contributions:

      occ. orbital   energy / eV   virt. orbital     energy / eV   |coeff.|^2*100
        2 a1            -24.72           2 b1              3.09       92.0
 

 S^2 expectation value:                     2.00345623


 Change of electron number:

             0.000000


 Electric transition dipole moment (velocity rep.):

    x       -0.301282        Norm:                  0.301282
    y        0.000000
    z        0.000000        Norm / debye:          0.765788


 Electric transition dipole moment (length rep.):

    x       -0.355716        Norm:                  0.355716
    y        0.000000
    z        0.000000        Norm / debye:          0.904146


 Magnetic transition dipole moment / i:

    x        0.000000        Norm:                  0.000818
    y        0.000818
    z        0.000000        Norm / Bohr mag.:      0.224111


 Electric quadrupole transition moment:

   xx        0.000000
   yy        0.000000        1/3*trace:             0.000000
   zz        0.000000
   xy        0.000000
   xz       -0.598343        Anisotropy:            1.036361
   yz        0.000000




                         5 triplet b1 excitation


 Total energy:                           -75.28797224026385    

 Excitation energy:                       1.055033942126139    

 Excitation energy / eV:                  28.70894657199123    

 Excitation energy / nm:                  43.18662257271006    

 Excitation energy / cm^(-1):             231553.1848240996    


 Oscillator strength:

    velocity representation:             0.1284931469969483    

    length representation:               0.2214236354600456    

    mixed representation:                0.1686754864814871    


 Rotatory strength:

    velocity representation:              0.000000000000000    

    velocity rep. / 10^(-40)erg*cm^3:     0.000000000000000    

    length representation:                0.000000000000000    

    length rep. / 10^(-40)erg*cm^3:       0.000000000000000    


 Dominant contributions:

      occ. orbital   energy / eV   virt. orbital     energy / eV   |coeff.|^2*100
        1 b1            -13.01           5 a1             17.22       90.4
 

 S^2 expectation value:                     2.00426086


 Change of electron number:

             0.000000


 Electric transition dipole moment (velocity rep.):

    x        0.427418        Norm:                  0.427418
    y        0.000000
    z        0.000000        Norm / debye:          1.086395


 Electric transition dipole moment (length rep.):

    x        0.561080        Norm:                  0.561080
    y        0.000000
    z        0.000000        Norm / debye:          1.426133


 Magnetic transition dipole moment / i:

    x        0.000000        Norm:                  0.000368
    y        0.000368
    z        0.000000        Norm / Bohr mag.:      0.100820


 Electric quadrupole transition moment:

   xx        0.000000
   yy        0.000000        1/3*trace:             0.000000
   zz        0.000000
   xy        0.000000
   xz        0.215794        Anisotropy:            0.373766
   yz        0.000000




                         6 triplet b1 excitation


 Total energy:                           -75.05974215967038    

 Excitation energy:                       1.283264022719621    

 Excitation energy / eV:                  34.91940571293149    

 Excitation energy / nm:                  35.50582877203836    

 Excitation energy / cm^(-1):             281643.8974769852    


 Oscillator strength:

    velocity representation:             0.1978750830290059    

    length representation:               0.1701375749683646    

    mixed representation:                0.1834829331933050    


 Rotatory strength:

    velocity representation:              0.000000000000000    

    velocity rep. / 10^(-40)erg*cm^3:     0.000000000000000    

    length representation:                0.000000000000000    

    length rep. / 10^(-40)erg*cm^3:       0.000000000000000    


 Dominant contributions:

      occ. orbital   energy / eV   virt. orbital     energy / eV   |coeff.|^2*100
        3 a1             -8.44           4 b1             27.75       78.9
        1 b1            -13.01           6 a1             23.83       21.0
 

 S^2 expectation value:                     2.00200852


 Change of electron number:

             0.000000


 Electric transition dipole moment (velocity rep.):

    x        0.480931        Norm:                  0.480931
    y        0.000000
    z        0.000000        Norm / debye:          1.222415


 Electric transition dipole moment (length rep.):

    x        0.445952        Norm:                  0.445952
    y        0.000000
    z        0.000000        Norm / debye:          1.133505


 Magnetic transition dipole moment / i:

    x        0.000000        Norm:                  0.001610
    y       -0.001610
    z        0.000000        Norm / Bohr mag.:      0.441283


 Electric quadrupole transition moment:

   xx        0.000000
   yy        0.000000        1/3*trace:             0.000000
   zz        0.000000
   xy        0.000000
   xz       -0.672245        Anisotropy:            1.164363
   yz        0.000000




                         7 triplet b1 excitation


 Total energy:                           -75.00048972061627    

 Excitation energy:                       1.342516461773727    

 Excitation energy / eV:                  36.53174730607154    

 Excitation energy / nm:                  33.93876645639182    

 Excitation energy / cm^(-1):             294648.3046564594    


 Oscillator strength:

    velocity representation:             0.1015153475072784E-02

    length representation:               0.5613511827095511E-02

    mixed representation:                0.2387169042744603E-02


 Rotatory strength:

    velocity representation:              0.000000000000000    

    velocity rep. / 10^(-40)erg*cm^3:     0.000000000000000    

    length representation:                0.000000000000000    

    length rep. / 10^(-40)erg*cm^3:       0.000000000000000    


 Dominant contributions:

      occ. orbital   energy / eV   virt. orbital     energy / eV   |coeff.|^2*100
        1 b1            -13.01           6 a1             23.83       78.8
        3 a1             -8.44           4 b1             27.75       20.9
 

 S^2 expectation value:                     2.00022479


 Change of electron number:

             0.000000


 Electric transition dipole moment (velocity rep.):

    x       -0.033678        Norm:                  0.033678
    y        0.000000
    z        0.000000        Norm / debye:          0.085603


 Electric transition dipole moment (length rep.):

    x       -0.079196        Norm:                  0.079196
    y        0.000000
    z        0.000000        Norm / debye:          0.201298


 Magnetic transition dipole moment / i:

    x        0.000000        Norm:                  0.000729
    y       -0.000729
    z        0.000000        Norm / Bohr mag.:      0.199721


 Electric quadrupole transition moment:

   xx        0.000000
   yy        0.000000        1/3*trace:             0.000000
   zz        0.000000
   xy        0.000000
   xz        0.222039        Anisotropy:            0.384584
   yz        0.000000




                         8 triplet b1 excitation


 Total energy:                           -74.92062880202425    

 Excitation energy:                       1.422377380365741    

 Excitation energy / eV:                  38.70487440037897    

 Excitation energy / nm:                  32.03323765475244    

 Excitation energy / cm^(-1):             312175.7502718045    


 Oscillator strength:

    velocity representation:             0.5776056277487446E-03

    length representation:               0.1382896957420085E-02

    mixed representation:                0.8937388126306571E-03


 Rotatory strength:

    velocity representation:              0.000000000000000    

    velocity rep. / 10^(-40)erg*cm^3:     0.000000000000000    

    length representation:                0.000000000000000    

    length rep. / 10^(-40)erg*cm^3:       0.000000000000000    


 Dominant contributions:

      occ. orbital   energy / eV   virt. orbital     energy / eV   |coeff.|^2*100
        2 a1            -24.72           3 b1             14.80       98.8
 

 S^2 expectation value:                     2.00125067


 Change of electron number:

             0.000000


 Electric transition dipole moment (velocity rep.):

    x        0.024680        Norm:                  0.024680
    y        0.000000
    z        0.000000        Norm / debye:          0.062732


 Electric transition dipole moment (length rep.):

    x        0.038189        Norm:                  0.038189
    y        0.000000
    z        0.000000        Norm / debye:          0.097066


 Magnetic transition dipole moment / i:

    x        0.000000        Norm:                  0.000984
    y       -0.000984
    z        0.000000        Norm / Bohr mag.:      0.269579


 Electric quadrupole transition moment:

   xx        0.000000
   yy        0.000000        1/3*trace:             0.000000
   zz        0.000000
   xy        0.000000
   xz        0.680874        Anisotropy:            1.179308
   yz        0.000000




                         9 triplet b1 excitation


 Total energy:                           -74.79144057841495    

 Excitation energy:                       1.551565603975052    

 Excitation energy / eV:                  42.22026633351047    

 Excitation energy / nm:                  29.36604971344327    

 Excitation energy / cm^(-1):             340529.2879392470    


 Oscillator strength:

    velocity representation:             0.8457982718954772E-02

    length representation:               0.3114604598175888E-01

    mixed representation:                0.1623061054543197E-01


 Rotatory strength:

    velocity representation:              0.000000000000000    

    velocity rep. / 10^(-40)erg*cm^3:     0.000000000000000    

    length representation:                0.000000000000000    

    length rep. / 10^(-40)erg*cm^3:       0.000000000000000    


 Dominant contributions:

      occ. orbital   energy / eV   virt. orbital     energy / eV   |coeff.|^2*100
        1 b1            -13.01           7 a1             30.18       99.2
 

 S^2 expectation value:                     2.00101714


 Change of electron number:

             0.000000


 Electric transition dipole moment (velocity rep.):

    x        0.090426        Norm:                  0.090426
    y        0.000000
    z        0.000000        Norm / debye:          0.229842


 Electric transition dipole moment (length rep.):

    x        0.173525        Norm:                  0.173525
    y        0.000000
    z        0.000000        Norm / debye:          0.441060


 Magnetic transition dipole moment / i:

    x        0.000000        Norm:                  0.000428
    y        0.000428
    z        0.000000        Norm / Bohr mag.:      0.117370


 Electric quadrupole transition moment:

   xx        0.000000
   yy        0.000000        1/3*trace:             0.000000
   zz        0.000000
   xy        0.000000
   xz        0.298342        Anisotropy:            0.516743
   yz        0.000000




                        10 triplet b1 excitation


 Total energy:                           -74.44746432906499    

 Excitation energy:                       1.895541853325019    

 Excitation energy / eV:                  51.58034032764311    

 Excitation energy / nm:                  24.03711243836487    

 Excitation energy / cm^(-1):             416023.3482349020    


 Oscillator strength:

    velocity representation:             0.9226325531683655E-01

    length representation:               0.9313316794769433E-01

    mixed representation:                0.9269719118087634E-01


 Rotatory strength:

    velocity representation:              0.000000000000000    

    velocity rep. / 10^(-40)erg*cm^3:     0.000000000000000    

    length representation:                0.000000000000000    

    length rep. / 10^(-40)erg*cm^3:       0.000000000000000    


 Dominant contributions:

      occ. orbital   energy / eV   virt. orbital     energy / eV   |coeff.|^2*100
        2 a1            -24.72           4 b1             27.75       99.2
 

 S^2 expectation value:                     2.00096823


 Change of electron number:

             0.000000


 Electric transition dipole moment (velocity rep.):

    x        0.270205        Norm:                  0.270205
    y        0.000000
    z        0.000000        Norm / debye:          0.686798


 Electric transition dipole moment (length rep.):

    x        0.271476        Norm:                  0.271476
    y        0.000000
    z        0.000000        Norm / debye:          0.690028


 Magnetic transition dipole moment / i:

    x        0.000000        Norm:                  0.000977
    y       -0.000977
    z        0.000000        Norm / Bohr mag.:      0.267681


 Electric quadrupole transition moment:

   xx        0.000000
   yy        0.000000        1/3*trace:             0.000000
   zz        0.000000
   xy        0.000000
   xz       -0.378962        Anisotropy:            0.656382
   yz        0.000000



 ==============================================================================

                              I R R E P   b2  

 ==============================================================================


 Excitation is electric dipole allowed

 Excitation is magnetic dipole allowed

 Excitation is electric quadrupole allowed




                         1 triplet b2 excitation


 Total energy:                           -76.08891409560042    

 Excitation energy:                      0.2540920867895886    

 Excitation energy / eV:                  6.914200437293518    

 Excitation energy / nm:                  179.3182669940076    

 Excitation energy / cm^(-1):             55766.76691193730    


 Oscillator strength:

    velocity representation:             0.9695990748783358E-01

    length representation:               0.1444010005378248E-01

    mixed representation:                0.3741805400244392E-01


 Rotatory strength:

    velocity representation:              0.000000000000000    

    velocity rep. / 10^(-40)erg*cm^3:     0.000000000000000    

    length representation:                0.000000000000000    

    length rep. / 10^(-40)erg*cm^3:       0.000000000000000    


 Dominant contributions:

      occ. orbital   energy / eV   virt. orbital     energy / eV   |coeff.|^2*100
        1 b2             -6.40           4 a1              0.92      100.0
 

 S^2 expectation value:                     2.00456921


 Change of electron number:

             0.000000


 Electric transition dipole moment (velocity rep.):

    x        0.000000        Norm:                  0.756565
    y       -0.756565
    z        0.000000        Norm / debye:          1.923011


 Electric transition dipole moment (length rep.):

    x        0.000000        Norm:                  0.291968
    y       -0.291968
    z        0.000000        Norm / debye:          0.742114


 Magnetic transition dipole moment / i:

    x        0.000282        Norm:                  0.000282
    y        0.000000
    z        0.000000        Norm / Bohr mag.:      0.077372


 Electric quadrupole transition moment:

   xx        0.000000
   yy        0.000000        1/3*trace:             0.000000
   zz        0.000000
   xy        0.000000
   xz        0.000000        Anisotropy:            0.170860
   yz        0.098646




                         2 triplet b2 excitation


 Total energy:                           -75.49982323083505    

 Excitation energy:                      0.8431829515549519    

 Excitation energy / eV:                  22.94418533855172    

 Excitation energy / nm:                  54.03732674619969    

 Excitation energy / cm^(-1):             185057.2669050591    


 Oscillator strength:

    velocity representation:             0.1054145192602744    

    length representation:               0.1866854136586084    

    mixed representation:                0.1402831177787537    


 Rotatory strength:

    velocity representation:              0.000000000000000    

    velocity rep. / 10^(-40)erg*cm^3:     0.000000000000000    

    length representation:                0.000000000000000    

    length rep. / 10^(-40)erg*cm^3:       0.000000000000000    


 Dominant contributions:

      occ. orbital   energy / eV   virt. orbital     energy / eV   |coeff.|^2*100
        1 b2             -6.40           5 a1             17.22       99.8
 

 S^2 expectation value:                     2.00170443


 Change of electron number:

             0.000000


 Electric transition dipole moment (velocity rep.):

    x        0.000000        Norm:                  0.433047
    y        0.433047
    z        0.000000        Norm / debye:          1.100704


 Electric transition dipole moment (length rep.):

    x        0.000000        Norm:                  0.576288
    y        0.576288
    z        0.000000        Norm / debye:          1.464790


 Magnetic transition dipole moment / i:

    x        0.001725        Norm:                  0.001725
    y        0.000000
    z        0.000000        Norm / Bohr mag.:      0.472743


 Electric quadrupole transition moment:

   xx        0.000000
   yy        0.000000        1/3*trace:             0.000000
   zz        0.000000
   xy        0.000000
   xz        0.000000        Anisotropy:            0.451542
   yz       -0.260698




                         3 triplet b2 excitation


 Total energy:                           -75.28070939932140    

 Excitation energy:                       1.062296783068601    

 Excitation energy / eV:                  28.90657861419625    

 Excitation energy / nm:                  42.89135897445114    

 Excitation energy / cm^(-1):             233147.1941577792    


 Oscillator strength:

    velocity representation:             0.1340887449910063E-01

    length representation:               0.1184729664328775E-01

    mixed representation:                0.1260392454132686E-01


 Rotatory strength:

    velocity representation:              0.000000000000000    

    velocity rep. / 10^(-40)erg*cm^3:     0.000000000000000    

    length representation:                0.000000000000000    

    length rep. / 10^(-40)erg*cm^3:       0.000000000000000    


 Dominant contributions:

      occ. orbital   energy / eV   virt. orbital     energy / eV   |coeff.|^2*100
        1 b2             -6.40           6 a1             23.83       84.2
        3 a1             -8.44           2 b2             23.42       15.7
 

 S^2 expectation value:                     2.00347828


 Change of electron number:

             0.000000


 Electric transition dipole moment (velocity rep.):

    x        0.000000        Norm:                  0.137600
    y        0.137600
    z        0.000000        Norm / debye:          0.349747


 Electric transition dipole moment (length rep.):

    x        0.000000        Norm:                  0.129340
    y        0.129340
    z        0.000000        Norm / debye:          0.328752


 Magnetic transition dipole moment / i:

    x        0.000399        Norm:                  0.000399
    y        0.000000
    z        0.000000        Norm / Bohr mag.:      0.109312


 Electric quadrupole transition moment:

   xx        0.000000
   yy        0.000000        1/3*trace:             0.000000
   zz        0.000000
   xy        0.000000
   xz        0.000000        Anisotropy:            1.470920
   yz       -0.849236




                         4 triplet b2 excitation


 Total energy:                           -75.19063280613167    

 Excitation energy:                       1.152373376258319    

 Excitation energy / eV:                  31.35768847712559    

 Excitation energy / nm:                  39.53870646330031    

 Excitation energy / cm^(-1):             252916.7211828067    


 Oscillator strength:

    velocity representation:             0.1345349132783710E-01

    length representation:               0.1696050115854022E-04

    mixed representation:                0.4776797622384602E-03


 Rotatory strength:

    velocity representation:              0.000000000000000    

    velocity rep. / 10^(-40)erg*cm^3:     0.000000000000000    

    length representation:                0.000000000000000    

    length rep. / 10^(-40)erg*cm^3:       0.000000000000000    


 Dominant contributions:

      occ. orbital   energy / eV   virt. orbital     energy / eV   |coeff.|^2*100
        3 a1             -8.44           2 b2             23.42       84.2
        1 b2             -6.40           6 a1             23.83       15.7
 

 S^2 expectation value:                     2.00049476


 Change of electron number:

             0.000000


 Electric transition dipole moment (velocity rep.):

    x        0.000000        Norm:                  0.132333
    y        0.132333
    z        0.000000        Norm / debye:          0.336358


 Electric transition dipole moment (length rep.):

    x        0.000000        Norm:                  0.004699
    y       -0.004699
    z        0.000000        Norm / debye:          0.011943


 Magnetic transition dipole moment / i:

    x        0.000723        Norm:                  0.000723
    y        0.000000
    z        0.000000        Norm / Bohr mag.:      0.198101


 Electric quadrupole transition moment:

   xx        0.000000
   yy        0.000000        1/3*trace:             0.000000
   zz        0.000000
   xy        0.000000
   xz        0.000000        Anisotropy:            0.508377
   yz       -0.293511




                         5 triplet b2 excitation


 Total energy:                           -75.04786725634389    

 Excitation energy:                       1.295138926046100    

 Excitation energy / eV:                  35.24253841182877    

 Excitation energy / nm:                  35.18028200966772    

 Excitation energy / cm^(-1):             284250.1374991625    


 Oscillator strength:

    velocity representation:             0.3186610945974519    

    length representation:               0.5275224762733847    

    mixed representation:                0.4100010850156803    


 Rotatory strength:

    velocity representation:              0.000000000000000    

    velocity rep. / 10^(-40)erg*cm^3:     0.000000000000000    

    length representation:                0.000000000000000    

    length rep. / 10^(-40)erg*cm^3:       0.000000000000000    


 Dominant contributions:

      occ. orbital   energy / eV   virt. orbital     energy / eV   |coeff.|^2*100
        1 b2             -6.40           7 a1             30.18       99.5
 

 S^2 expectation value:                     2.00216017


 Change of electron number:

             0.000000


 Electric transition dipole moment (velocity rep.):

    x        0.000000        Norm:                  0.607508
    y       -0.607508
    z        0.000000        Norm / debye:          1.544143


 Electric transition dipole moment (length rep.):

    x        0.000000        Norm:                  0.781642
    y       -0.781642
    z        0.000000        Norm / debye:          1.986751


 Magnetic transition dipole moment / i:

    x       -0.002174        Norm:                  0.002174
    y        0.000000
    z        0.000000        Norm / Bohr mag.:      0.595905


 Electric quadrupole transition moment:

   xx        0.000000
   yy        0.000000        1/3*trace:             0.000000
   zz        0.000000
   xy        0.000000
   xz        0.000000        Anisotropy:            0.520248
   yz        0.300365




                         6 triplet b2 excitation


 Total energy:                           -74.60446348684081    

 Excitation energy:                       1.738542695549178    

 Excitation energy / eV:                  47.30817404704839    

 Excitation energy / nm:                  26.20778470189209    

 Excitation energy / cm^(-1):             381566.0160618384    


 Oscillator strength:

    velocity representation:             0.1046311999688753    

    length representation:               0.7024410519686987E-01

    mixed representation:                0.8573053725183577E-01


 Rotatory strength:

    velocity representation:              0.000000000000000    

    velocity rep. / 10^(-40)erg*cm^3:     0.000000000000000    

    length representation:                0.000000000000000    

    length rep. / 10^(-40)erg*cm^3:       0.000000000000000    


 Dominant contributions:

      occ. orbital   energy / eV   virt. orbital     energy / eV   |coeff.|^2*100
        2 a1            -24.72           2 b2             23.42       99.4
 

 S^2 expectation value:                     2.00114320


 Change of electron number:

             0.000000


 Electric transition dipole moment (velocity rep.):

    x        0.000000        Norm:                  0.300458
    y        0.300458
    z        0.000000        Norm / debye:          0.763693


 Electric transition dipole moment (length rep.):

    x        0.000000        Norm:                  0.246183
    y        0.246183
    z        0.000000        Norm / debye:          0.625739


 Magnetic transition dipole moment / i:

    x        0.001221        Norm:                  0.001221
    y        0.000000
    z        0.000000        Norm / Bohr mag.:      0.334721


 Electric quadrupole transition moment:

   xx        0.000000
   yy        0.000000        1/3*trace:             0.000000
   zz        0.000000
   xy        0.000000
   xz        0.000000        Anisotropy:            0.063933
   yz       -0.036912




                         7 triplet b2 excitation


 Total energy:                           -73.68591633162148    

 Excitation energy:                       2.657089850768515    

 Excitation energy / eV:                  72.30312458854823    

 Excitation energy / nm:                  17.14784038892084    

 Excitation energy / cm^(-1):             583163.8137341379    


 Oscillator strength:

    velocity representation:             0.2859051660879228E-01

    length representation:               0.6977157777506265E-01

    mixed representation:                0.4466324499182265E-01


 Rotatory strength:

    velocity representation:              0.000000000000000    

    velocity rep. / 10^(-40)erg*cm^3:     0.000000000000000    

    length representation:                0.000000000000000    

    length rep. / 10^(-40)erg*cm^3:       0.000000000000000    


 Dominant contributions:

      occ. orbital   energy / eV   virt. orbital     energy / eV   |coeff.|^2*100
        1 b2             -6.40           8 a1             67.45       91.8
 

 S^2 expectation value:                     2.00091172


 Change of electron number:

             0.000000


 Electric transition dipole moment (velocity rep.):

    x        0.000000        Norm:                  0.127044
    y        0.127044
    z        0.000000        Norm / debye:          0.322916


 Electric transition dipole moment (length rep.):

    x        0.000000        Norm:                  0.198464
    y        0.198464
    z        0.000000        Norm / debye:          0.504449


 Magnetic transition dipole moment / i:

    x        0.000860        Norm:                  0.000860
    y        0.000000
    z        0.000000        Norm / Bohr mag.:      0.235736


 Electric quadrupole transition moment:

   xx        0.000000
   yy        0.000000        1/3*trace:             0.000000
   zz        0.000000
   xy        0.000000
   xz        0.000000        Anisotropy:            0.129419
   yz       -0.074720




                         8 triplet b2 excitation


 Total energy:                           -73.58415305281881    

 Excitation energy:                       2.758853129571200    

 Excitation energy / eV:                  75.07224548360627    

 Excitation energy / nm:                  16.51532376682979    

 Excitation energy / cm^(-1):             605498.2717681784    


 Oscillator strength:

    velocity representation:             0.4463207334828244    

    length representation:                1.098732815645898    

    mixed representation:                0.7002765426463505    


 Rotatory strength:

    velocity representation:              0.000000000000000    

    velocity rep. / 10^(-40)erg*cm^3:     0.000000000000000    

    length representation:                0.000000000000000    

    length rep. / 10^(-40)erg*cm^3:       0.000000000000000    


 Dominant contributions:

      occ. orbital   energy / eV   virt. orbital     energy / eV   |coeff.|^2*100
        3 a1             -8.44           3 b2             68.79       91.4
 

 S^2 expectation value:                     2.00107414


 Change of electron number:

             0.000000


 Electric transition dipole moment (velocity rep.):

    x        0.000000        Norm:                  0.492612
    y        0.492612
    z        0.000000        Norm / debye:          1.252104


 Electric transition dipole moment (length rep.):

    x        0.000000        Norm:                  0.772907
    y        0.772907
    z        0.000000        Norm / debye:          1.964549


 Magnetic transition dipole moment / i:

    x        0.003078        Norm:                  0.003078
    y        0.000000
    z        0.000000        Norm / Bohr mag.:      0.843595


 Electric quadrupole transition moment:

   xx        0.000000
   yy        0.000000        1/3*trace:             0.000000
   zz        0.000000
   xy        0.000000
   xz        0.000000        Anisotropy:            1.272898
   yz       -0.734908




                         9 triplet b2 excitation


 Total energy:                           -73.43561154470019    

 Excitation energy:                       2.907394637689809    

 Excitation energy / eV:                  79.11426730871101    

 Excitation energy / nm:                  15.67154044701831    

 Excitation energy / cm^(-1):             638099.3644061312    


 Oscillator strength:

    velocity representation:             0.1200945199753304    

    length representation:               0.3280407002666403    

    mixed representation:                0.1984839802878142    


 Rotatory strength:

    velocity representation:              0.000000000000000    

    velocity rep. / 10^(-40)erg*cm^3:     0.000000000000000    

    length representation:                0.000000000000000    

    length rep. / 10^(-40)erg*cm^3:       0.000000000000000    


 Dominant contributions:

      occ. orbital   energy / eV   virt. orbital     energy / eV   |coeff.|^2*100
        1 b1            -13.01           1 a2             67.90       95.3
 

 S^2 expectation value:                     2.00068207


 Change of electron number:

             0.000000


 Electric transition dipole moment (velocity rep.):

    x        0.000000        Norm:                  0.248917
    y       -0.248917
    z        0.000000        Norm / debye:          0.632690


 Electric transition dipole moment (length rep.):

    x        0.000000        Norm:                  0.411394
    y       -0.411394
    z        0.000000        Norm / debye:          1.045666


 Magnetic transition dipole moment / i:

    x       -0.001170        Norm:                  0.001170
    y        0.000000
    z        0.000000        Norm / Bohr mag.:      0.320650


 Electric quadrupole transition moment:

   xx        0.000000
   yy        0.000000        1/3*trace:             0.000000
   zz        0.000000
   xy        0.000000
   xz        0.000000        Anisotropy:            0.340850
   yz        0.196790




                        10 triplet b2 excitation


 Total energy:                           -73.33804947683727    

 Excitation energy:                       3.004956705552730    

 Excitation energy / eV:                  81.76906738849338    

 Excitation energy / nm:                  15.16273182099610    

 Excitation energy / cm^(-1):             659511.7632206741    


 Oscillator strength:

    velocity representation:             0.2563422896212838    

    length representation:               0.4465131056327726    

    mixed representation:                0.3383196592629744    


 Rotatory strength:

    velocity representation:              0.000000000000000    

    velocity rep. / 10^(-40)erg*cm^3:     0.000000000000000    

    length representation:                0.000000000000000    

    length rep. / 10^(-40)erg*cm^3:       0.000000000000000    


 Dominant contributions:

      occ. orbital   energy / eV   virt. orbital     energy / eV   |coeff.|^2*100
        1 b2             -6.40           9 a1             77.83       97.4
 

 S^2 expectation value:                     2.00125767


 Change of electron number:

             0.000000


 Electric transition dipole moment (velocity rep.):

    x        0.000000        Norm:                  0.357715
    y        0.357715
    z        0.000000        Norm / debye:          0.909227


 Electric transition dipole moment (length rep.):

    x        0.000000        Norm:                  0.472110
    y        0.472110
    z        0.000000        Norm / debye:          1.199994


 Magnetic transition dipole moment / i:

    x        0.002567        Norm:                  0.002567
    y        0.000000
    z        0.000000        Norm / Bohr mag.:      0.703556


 Electric quadrupole transition moment:

   xx        0.000000
   yy        0.000000        1/3*trace:             0.000000
   zz        0.000000
   xy        0.000000
   xz        0.000000        Anisotropy:            0.789823
   yz       -0.456004

 SUMMARY OF EXCITATION ENERGIES AND DIPOLE OSCILLATOR STRENGTHS (velocity/length):

 -----------------------------------------------------------------------------------------------
 |    Exc.   | energy (Eh) | energy (eV) | energy (cm-1) | energy (nm) | Osc.(vel) | Osc.(len) |
 -----------------------------------------------------------------------------------------------
 |     1 a1  |    0.324772 |     8.83749 |     71279.129 |     140.294 |   0.23549 |   0.13129 |
 |     2 a1  |    0.550094 |    14.96882 |    120731.699 |      82.828 |   0.14628 |   0.17450 |
 |     3 a1  |    0.888963 |    24.18990 |    195104.720 |      51.255 |   0.05990 |   0.09086 |
 |     4 a1  |    0.927566 |    25.24036 |    203577.239 |      49.121 |   0.00157 |   0.00440 |
 |     5 a1  |    0.972653 |    26.46724 |    213472.678 |      46.844 |   0.18461 |   0.28399 |
 |     6 a1  |    1.004704 |    27.33939 |    220507.034 |      45.350 |   0.00472 |   0.00730 |
 |     7 a1  |    1.106575 |    30.11144 |    242865.135 |      41.175 |   0.07927 |   0.05344 |
 |     8 a1  |    1.389157 |    37.80088 |    304884.668 |      32.799 |   0.02794 |   0.04812 |
 |     9 a1  |    1.434607 |    39.03766 |    314859.939 |      31.760 |   0.03119 |   0.04406 |
 |    10 a1  |    1.500927 |    40.84230 |    329415.345 |      30.357 |   0.00950 |   0.00942 |
 -----------------------------------------------------------------------------------------------
 Transitions are magnetic dipole forbidden in irrep a1  


 -----------------------------------------------------------------------------------------------
 |    Exc.   | energy (Eh) | energy (eV) | energy (cm-1) | energy (nm) | Osc.(vel) | Osc.(len) |
 -----------------------------------------------------------------------------------------------
 |     1 a2  |    0.334777 |     9.10975 |     73475.108 |     136.101 |   0.00000 |   0.00000 |
 |     2 a2  |    0.764333 |    20.79856 |    167751.677 |      59.612 |   0.00000 |   0.00000 |
 |     3 a2  |    1.214212 |    33.04040 |    266488.794 |      37.525 |   0.00000 |   0.00000 |
 |     4 a2  |    1.320789 |    35.94049 |    289879.642 |      34.497 |   0.00000 |   0.00000 |
 |     5 a2  |    2.757597 |    75.03803 |    605222.570 |      16.523 |   0.00000 |   0.00000 |
 |     6 a2  |    2.978179 |    81.04037 |    653634.657 |      15.299 |   0.00000 |   0.00000 |
 |     7 a2  |    3.208802 |    87.31595 |    704250.607 |      14.199 |   0.00000 |   0.00000 |
 |     8 a2  |    3.336389 |    90.78777 |    732252.755 |      13.656 |   0.00000 |   0.00000 |
 |     9 a2  |   21.242864 |   578.04777 |   4662269.744 |       2.145 |   0.00000 |   0.00000 |
 -----------------------------------------------------------------------------------------------
 Transitions are electric dipole forbidden in irrep a2  


 -----------------------------------------------------------------------------------------------
 |    Exc.   | energy (Eh) | energy (eV) | energy (cm-1) | energy (nm) | Osc.(vel) | Osc.(len) |
 -----------------------------------------------------------------------------------------------
 |     1 b1  |    0.400694 |    10.90344 |     87942.187 |     113.711 |   0.21127 |   0.22623 |
 |     2 b1  |    0.487023 |    13.25256 |    106889.121 |      93.555 |   0.28759 |   0.27780 |
 |     3 b1  |    0.816957 |    22.23053 |    179301.303 |      55.772 |   0.26482 |   0.35816 |
 |     4 b1  |    0.997480 |    27.14282 |    218921.571 |      45.678 |   0.06036 |   0.08414 |
 |     5 b1  |    1.055034 |    28.70894 |    231553.185 |      43.187 |   0.12849 |   0.22142 |
 |     6 b1  |    1.283264 |    34.91939 |    281643.897 |      35.506 |   0.19788 |   0.17014 |
 |     7 b1  |    1.342516 |    36.53173 |    294648.305 |      33.939 |   0.00102 |   0.00561 |
 |     8 b1  |    1.422377 |    38.70486 |    312175.750 |      32.033 |   0.00058 |   0.00138 |
 |     9 b1  |    1.551566 |    42.22025 |    340529.288 |      29.366 |   0.00846 |   0.03115 |
 |    10 b1  |    1.895542 |    51.58032 |    416023.348 |      24.037 |   0.09226 |   0.09313 |
 -----------------------------------------------------------------------------------------------


 -----------------------------------------------------------------------------------------------
 |    Exc.   | energy (Eh) | energy (eV) | energy (cm-1) | energy (nm) | Osc.(vel) | Osc.(len) |
 -----------------------------------------------------------------------------------------------
 |     1 b2  |    0.254092 |     6.91420 |     55766.767 |     179.318 |   0.09696 |   0.01444 |
 |     2 b2  |    0.843183 |    22.94418 |    185057.267 |      54.037 |   0.10541 |   0.18669 |
 |     3 b2  |    1.062297 |    28.90657 |    233147.194 |      42.891 |   0.01341 |   0.01185 |
 |     4 b2  |    1.152373 |    31.35768 |    252916.721 |      39.539 |   0.01345 |   0.00002 |
 |     5 b2  |    1.295139 |    35.24253 |    284250.137 |      35.180 |   0.31866 |   0.52752 |
 |     6 b2  |    1.738543 |    47.30816 |    381566.016 |      26.208 |   0.10463 |   0.07024 |
 |     7 b2  |    2.657090 |    72.30310 |    583163.814 |      17.148 |   0.02859 |   0.06977 |
 |     8 b2  |    2.758853 |    75.07222 |    605498.272 |      16.515 |   0.44632 |   1.09873 |
 |     9 b2  |    2.907395 |    79.11424 |    638099.364 |      15.672 |   0.12009 |   0.32804 |
 |    10 b2  |    3.004957 |    81.76904 |    659511.763 |      15.163 |   0.25634 |   0.44651 |
 -----------------------------------------------------------------------------------------------




    ------------------------------------------------------------------------
         total  cpu-time :   0.14 seconds
         total wall-time :   0.13 seconds
    ------------------------------------------------------------------------

   ****  escf : all done  ****


    2019-02-06 17:19:01.029 

