 operating system is UNIX !

 force (localhost.localdomain) : TURBOMOLE V7.3.1 () 25 Feb 2019 at 10:12:05
 Copyright (C) 2019 TURBOMOLE GmbH, Karlsruhe


    2021-06-10 14:04:02.546 



                             T U R B O M O L E   

                          a o f o r c e - program

                        using direct algorithms for

                       SCF level calculations of
                         * harmonic force constants
                         * hyperpolarizabilities
                         * IR and RAMAN intensities
                         * VCD intensities

                       DFT level calculations of
                         * harmonic force constants
                         * IR intensities
                                                   
       Stephan Boecker, Peter Deglmann, Filipp Furche and Marco Haeser
                          Quantum Chemistry Group
                          Universitaet  Karlsruhe
                                   Germany

 
 
 
 
     References :
 
       RI-J implementation:
         Peter Deglmann, Klaus May, Filipp Furche, Reinhart Ahlrichs
                 Chem. Phys. Lett. 384:103 (2004)
 
       Efficiency, technical details:
         Peter Deglmann, Filipp Furche, Reinhart Ahlrichs
                 Chem. Phys. Lett. 362:511 (2002)
 
       Search of lowest eigenvalues by iterative diagonalization:
         Peter Deglmann, Filipp Furche
                 J. Chem. Phys. 117:9535 (2002)
 
       Vibrational circular dichroism implementation:
        Kevin Reiter, Michael Kuehn, Florian Weigend
                 J. Chem. Phys. 146:054102 (2017)  
 
 


              +--------------------------------------------------+
              | Atomic coordinate, charge and isotop information |
              +--------------------------------------------------+

                    atomic coordinates            atom    charge  isotop
          0.05814498   -3.50738391    0.00000000    o      8.000     0
          2.43488579    0.35436813    0.00000000    c      6.000     0
         -2.48030013    0.26702469    0.00000000    c      6.000     0
         -0.00509977   -1.20231423    0.00000000    c      6.000     0
          2.11408643    2.42830913    0.00000000    h      1.000     0
         -4.10640229   -1.05476626    0.00000000    h      1.000     0
          3.57887083   -0.16668276    1.68562205    h      1.000     0
          3.57887083   -0.16668276   -1.68562205    h      1.000     0
         -2.58652834    1.52406399    1.68701865    h      1.000     0
         -2.58652834    1.52406399   -1.68701865    h      1.000     0
 
       center of nuclear mass  :    0.00543831   -1.01535818    0.00000000
       center of nuclear charge:    0.00482639   -0.85800920    0.00000000

   *************************************************************************
   ridft                                                                    
   *************************************************************************



              +--------------------------------------------------+
              |               basis set information              |
              +--------------------------------------------------+

              we will work with the 1s 3p 5d 7f 9g ... basis set
              ...i.e. with spherical basis functions...

   type   atoms  prim   cont   basis
   ---------------------------------------------------------------------------
    o        1     24     14   def-SV(P)   [3s2p1d|7s4p1d]
    c        3     24     14   def-SV(P)   [3s2p1d|7s4p1d]
    h        6      4      2   def-SV(P)   [2s|4s]
   ---------------------------------------------------------------------------
   total:   10    120     68
   ---------------------------------------------------------------------------

   total number of primitive shells          :   28
   total number of contracted shells         :   36
   total number of cartesian basis functions :   72
   total number of SCF-basis functions       :   68


 symmetry group of the molecule :   cs

 the group has the following generators :
   c1(z)
   mirror plane sigma(xy)

    2 symmetry operations found

 there are 2 real representations :   a'   a"  

 maximum number of shells which are related by symmetry :  2


 determining totally symmetric integral contributions 
    - equivalent to irreducible tensor elements - 
 which can be formed within each triple of representations :

             representation triple      contributions

              a'    a'    a'              1
              a'    a"    a"              1
              a"    a'    a"              1
              a"    a"    a'              1

    mo occupation :
   irrep   mo's   occupied
    a'      48       13
    a"      20        3
 
 number of basis functions   :                     68
 number of occupied orbitals :                     16
 
  MOs are in ASCII format !


 reading orbital data $scfmo  from file mos
 orbital characterization : scfconv=8
 time elapsed for calculating density matrices :   0.000 sec

 number of non-frozen orbitals          :    68
 number of non-frozen occupied orbitals :    16
 Blocking parameters 
 shells:
    index      start shell   last shell  start bf    last bf    #bf 
       1             1          36             1         72     72
          size of I/O Block in Byte:                1244160
  
           ------------------
           density functional
           ------------------
 B-P86 functional
 exchange:    LDA + Becke (B88)
 correlation: LDA (VWN) + Perdew (P86)

 iterations will be done with small grid
  
 spherical integration : Lebedev's spherical grid
 spherical gridsize    :                     3
    i.e. gridpoints    :                   302
 value for diffuse not defined
 radial integration    : Chebyshev 2nd kind (scaling 3)
 radial gridsize       :                     3
 integration cells     :                     8
 partition function    : becke
 partition sharpness   :                     3
  
 
 Derivatives of quadrature weights will be included
 
          Overall gridpoints after grid construction =         24534
 Ordering of quadrature gridpoints disabled.
 
 
 
 
 OCCUPIED-OCCUPIED TENSOR SPACES :

          IRREP   tensor space dimension   number of roots

           a'              178                  15
           a"               78                   9
 
 OCCUPIED-VIRTUAL TENSOR SPACES :

          IRREP   tensor space dimension   number of roots

           a'              506                  15
           a"              326                   9
 
 
 
 
 CONSTRUCTING integral bounds

 setting up bound for integral derivative estimation

 increment for numerical differentiation : 0.00050000
 
 machine precision:   2.220446049250313E-016

 integral neglect threshold       :  0.10E-09
 integral storage threshold THIZE :  0.10E-04
 integral storage threshold THIME :         5

 
 
 
 PREPARING NUMERICAL INTEGRATION
 
 Remaining core memory for DFT =                   497 MB
 
 Memory needed per atom    =                    61 KiB
 
     i. e.                    10 atoms per loop

 Calculating ground state density on molecular grid

 Integral of ground state density: N =   32.00001039750099    


 
 
 CONSTRUCTING first deriv. of <mu|x,y,z|nu> -> Dip. deriv.
  dipole integral derivatives will be neglected if
  expon. factor <0.694444E-12
      ...terminated. cpu:       0.00       wall:       0.00
 
 
 
 
 CONSTRUCTING first deriv. of  <mu|nu>
                               <mu|h|nu>    -> RHS
              second deriv. of <mu|nu>      -> Hessian
                               <mu|h|nu>    -> Hessian
                               nucl. rep.   -> Hessian
     integrals are neglected if expon. factor <  6.944444444444444E-014
      ...terminated. cpu:       0.03       wall:       0.03
 
 
 
 
 CONSTRUCTING second deriv. of 2e energy    -> Hessian
   treating Coulomb (and exchange) contribution
     integrals will be neglected if total contribution <  6.944444444444444E-010
      ...terminated. cpu:       1.33       wall:       1.34
   treating exchange-correlation contribution
      ...terminated. cpu:       1.58       wall:       1.60
 
 
 
 
 CONSTRUCTING S(i,j)xi
      ...terminated. cpu:       0.00       wall:       0.00
 
 
 
 
 CONSTRUCTING <i|x,y,z|j>*S(i,j)xi          -> Dip. deriv.
      ...terminated. cpu:       0.00       wall:       0.00
 
 
 
 
 CONSTRUCTING epsilon(i)*S(i,j)xi*S(i,j)chi -> Hessian
      ...terminated. cpu:       0.00       wall:       0.00
 
 
 
 
 CONSTRUCTING G(a,i)[S(k,l)xi]              -> RHS
              G(i,j)[S(k,l)xi]*S(i,j)chi    -> Hessian
 
         Maximum core memory set to                    500 MB
         This corresponds to                 12082 vectors in CAO basis
      ...terminated. cpu:       0.80       wall:       0.80
 
 
 
 
 CONSTRUCTING G(mu,nu)[D(kap,lam)]xi
 
          Maximum core memory set to                    500 MB
          Atoms treated simultaneously :                    10
 max of dfo   6.84546970462346     
      ...terminated. cpu:       1.14       wall:       1.15
 
 
 
 
 CONSTRUCTING F(a,i)xi                      -> RHS
              F(i,j)xi*S(i,j)chi            -> Hessian
 
        Maximum core memory set to                   500 MB
        This corresponds to                 20911 vectors in CAO basis
      ...terminated. cpu:       0.00       wall:       0.00
 
 
 
 
 CONSTRUCTING epsilon(i)*S(a,i)xi           -> RHS
      ...terminated. cpu:       0.00       wall:       0.00
 
 
 
 
 SOLVING CPHF equations
 
 Residuum convergence criterium   :  1.000000000000000E-005
 
 Maximum number of Davidson iterations set to                    25
  Switching to small grid
        preparing numerical integration ....
          Overall gridpoints after grid construction =          6727

 Calculating ground state density on molecular grid

 Integral of ground state density: N =   32.00124448133288    




                       Nonorthonormal Krylov Space Iteration


 total number of roots to be determined: 24


 maximum core memory set to   500 MB,
 corresponding to    12082 vectors in CAO basis


 maximum number of simultaneously treated vectors (including degeneracy):       24


 Iteration IRREP Converged      Max. Euclidean
                 roots          residual norm

    1       a'       0        4.707168060865728D-02
            a"       0        2.101070522840367D-02
 
    2       a'       0        3.108079759131065D-03
            a"       0        2.142578755313494D-03
 
    3       a'       0        1.493542542582587D-04
            a"       0        1.131080353353217D-04
 
    4       a'      15        3.352118552945640D-06
            a"       9        1.725167132520517D-06
 

 converged!

  Switching to fine grid
        preparing numerical integration ....
          Overall gridpoints after grid construction =         24534

 Calculating ground state density on molecular grid

 Integral of ground state density: N =   32.00001039750094    



 Iteration IRREP Converged      Max. Euclidean
                 roots          residual norm

    5       a'       0        7.333436706252095D-05
            a"       1        3.947238942223868D-05
 

 NOTE: Residual norms are larger than 1.00D-05 due to mgrid option!

      ...terminated. cpu:       2.15       wall:       2.16
 
 
 
 
 CONSTRUCTING <a|x,y,z|i>*U(a,i)xi          -> Dip. deriv.
      ...terminated. cpu:       0.00       wall:       0.00
 
 
 
 
 CONSTRUCTING RHS(a,i)xi*U(a,i)chi          -> Hessian
      ...terminated. cpu:       0.00       wall:       0.00
 
 
 
 

            -----------------------
            permanent dipole moment
            -----------------------

                                   x                y                z
    electronic part       :   -0.1320529051    28.4792718358    -0.0000000000
     nuclear   part       :    0.1544443291   -27.4562944460     0.0000000000
     total                :    0.0223914241     1.0229773898    -0.0000000000

 with reference to the point :   0.0000000        0.0000000        0.0000000
 (given in atomic units)
    | dipole |       :    2.6007916240  debye

   ***  dipole moment & cartesian dipole gradients written onto
        $dipole, $dipgrad,  file=<dipgrad>  ***

             -----------------------------------
             rotational and vibrational analysis
             -----------------------------------


            ==============================================================
            ATOMIC WEIGHTS (average over the natural occurance of isotops)
            ==============================================================
            ('*' denotes special isotop !)
              1     o                15.99940
              2     c                12.01115
              3     c                12.01115
              4     c                12.01115
              5     h                 1.00797
              6     h                 1.00797
              7     h                 1.00797
              8     h                 1.00797
              9     h                 1.00797
             10     h                 1.00797

          -------------------------------------------------
          CARTESIAN FORCE CONSTANT MATRIX (hartree/bohr**2)
         (translational & rotational space projected out)
          -------------------------------------------------

   ATOM              1 o                           2 c 
                  dx        dy        dz        dx        dy        dz
   1 o     dx  0.0913170
           dy -0.0209348 0.8146040
           dz  0.0000000 0.0000000 0.0233904
   2 c     dx  0.0091027-0.0236356 0.0000000 0.4557639
           dy -0.0377307-0.0460284 0.0000000-0.0514885 0.5439242
           dz  0.0000000 0.0000000 0.0144988 0.0000000 0.0000000 0.5005750
   3 c     dx  0.0065161 0.0227628 0.0000000-0.0228034 0.0086204 0.0000000
           dy  0.0411011-0.0456585 0.0000000-0.0111797 0.0098318 0.0000000
           dz  0.0000000 0.0000000 0.0266571 0.0000000 0.0000000 0.0162371
   4 c     dx -0.1041944 0.0192110 0.0000000-0.1574394-0.0358889 0.0000000
           dy  0.0166643-0.7194294 0.0000000-0.0231301-0.0924610 0.0000000
           dz  0.0000000 0.0000000-0.0667069 0.0000000 0.0000000-0.0778951
   5 h     dx -0.0066643-0.0063504 0.0000000-0.0539389 0.0441601 0.0000000
           dy -0.0059735-0.0023412 0.0000000 0.0401411-0.2957971 0.0000000
           dz  0.0000000 0.0000000 0.0030133 0.0000000 0.0000000-0.0449311
   6 h     dx  0.0055322 0.0002087 0.0000000-0.0029683 0.0038922 0.0000000
           dy -0.0015039 0.0013546 0.0000000 0.0021558-0.0013958 0.0000000
           dz  0.0000000 0.0000000-0.0013635 0.0000000 0.0000000 0.0031039
   7 h     dx  0.0026664 0.0016599 0.0027691-0.1135505 0.0348737-0.1174381
           dy -0.0000239-0.0006543 0.0023441 0.0339304-0.0595703 0.0521337
           dz  0.0000204-0.0006834 0.0012572-0.1137919 0.0526290-0.2061868
   8 h     dx  0.0026664 0.0016599-0.0027691-0.1135505 0.0348737 0.1174381
           dy -0.0000239-0.0006543-0.0023441 0.0339304-0.0595703-0.0521337
           dz -0.0000204 0.0006834 0.0012572 0.1137919-0.0526290-0.2061868
   9 h     dx -0.0034711 0.0027093-0.0036452-0.0003078-0.0006560-0.0029263
           dy  0.0042126-0.0005962 0.0023117-0.0003618 0.0005335 0.0018734
           dz  0.0002208 0.0013222-0.0010018 0.0002436-0.0005195 0.0003925
  10 h     dx -0.0034711 0.0027093 0.0036452-0.0003078-0.0006560 0.0029263
           dy  0.0042126-0.0005962-0.0023117-0.0003618 0.0005335-0.0018734
           dz -0.0002208-0.0013222-0.0010018-0.0002436 0.0005195 0.0003925

   ATOM              3 c                           4 c 
                  dx        dy        dz        dx        dy        dz
   3 c     dx  0.4840557
           dy  0.0668786 0.5306872
           dz  0.0000000 0.0000000 0.4931069
   4 c     dx -0.1712406 0.0253592 0.0000000 0.4700504
           dy  0.0272593-0.0876386 0.0000000-0.0162746 0.9184457
           dz  0.0000000 0.0000000-0.0851780 0.0000000 0.0000000 0.2288787
   5 h     dx -0.0003227 0.0011607 0.0000000 0.0122792-0.0247092 0.0000000
           dy  0.0006916 0.0014233 0.0000000 0.0098541-0.0124002 0.0000000
           dz  0.0000000 0.0000000 0.0003461 0.0000000 0.0000000-0.0041548
   6 h     dx -0.2006438-0.1282381 0.0000000-0.0226061-0.0222595 0.0000000
           dy -0.1325824-0.1531023 0.0000000 0.0143058 0.0113448 0.0000000
           dz  0.0000000 0.0000000-0.0465157 0.0000000 0.0000000-0.0010137
   7 h     dx -0.0023107-0.0028874 0.0022828-0.0170526 0.0068515-0.0223042
           dy -0.0006888-0.0002884 0.0014497-0.0070282 0.0037375-0.0157082
           dz  0.0002719-0.0004800-0.0004569 0.0023968 0.0004542 0.0009674
   8 h     dx -0.0023107-0.0028874-0.0022828-0.0170526 0.0068515 0.0223042
           dy -0.0006888-0.0002884-0.0014497-0.0070282 0.0037375 0.0157082
           dz -0.0002719 0.0004800-0.0004569-0.0023968-0.0004542 0.0009674
   9 h     dx -0.0454700 0.0053466 0.0129010 0.0036281 0.0143734 0.0247054
           dy  0.0038736-0.1274830-0.1256112-0.0012551-0.0126681-0.0123443
           dz  0.0099487-0.1221293-0.2018698-0.0013370 0.0011797 0.0020674
  10 h     dx -0.0454700 0.0053466-0.0129010 0.0036281 0.0143734-0.0247054
           dy  0.0038736-0.1274830 0.1256112-0.0012551-0.0126681 0.0123443
           dz -0.0099487 0.1221293-0.2018698 0.0013370-0.0011797 0.0020674

   ATOM              5 h                           6 h 
                  dx        dy        dz        dx        dy        dz
   5 h     dx  0.0539947
           dy -0.0440257 0.3166284
           dz  0.0000000 0.0000000 0.0420425
   6 h     dx  0.0006959 0.0003399 0.0000000 0.2158177
           dy  0.0000021 0.0001263 0.0000000 0.1393128 0.1583163
           dz  0.0000000 0.0000000-0.0000904 0.0000000 0.0000000 0.0426306
   7 h     dx -0.0023523-0.0001010-0.0020402-0.0009894 0.0003609 0.0005794
           dy  0.0149379-0.0040357 0.0236514-0.0001596 0.0002151 0.0000702
           dz  0.0023659-0.0010125 0.0019808 0.0000811 0.0000223-0.0001426
   8 h     dx -0.0023523-0.0001010 0.0020402-0.0009894 0.0003609-0.0005794
           dy  0.0149379-0.0040357-0.0236514-0.0001596 0.0002151-0.0000702
           dz -0.0023659 0.0010125 0.0019808-0.0000811-0.0000223-0.0001426
   9 h     dx -0.0006697-0.0004127 0.0002158 0.0030756-0.0112060-0.0191188
           dy -0.0000567 0.0002160 0.0000310 0.0035316-0.0085370-0.0134284
           dz  0.0001632 0.0003657-0.0000935-0.0003347 0.0023959 0.0017670
  10 h     dx -0.0006697-0.0004127-0.0002158 0.0030756-0.0112060 0.0191188
           dy -0.0000567 0.0002160-0.0000310 0.0035316-0.0085370 0.0134284
           dz -0.0001632-0.0003657-0.0000935 0.0003347-0.0023959 0.0017670

   ATOM              7 h                           8 h 
                  dx        dy        dz        dx        dy        dz
   7 h     dx  0.1233029
           dy -0.0361874 0.0591537
           dz  0.1222934-0.0573306 0.2197784
   8 h     dx  0.0097529-0.0046210-0.0138153 0.1233029
           dy -0.0046210 0.0014931 0.0063771-0.0361874 0.0591537
           dz  0.0138153-0.0063771-0.0171354-0.1222934 0.0573306 0.2197784
   9 h     dx -0.0004521-0.0003514 0.0000589 0.0009855 0.0001920-0.0001187
           dy  0.0003572-0.0000387-0.0000725-0.0003063-0.0000120-0.0000964
           dz  0.0000229 0.0000223-0.0000054-0.0000198 0.0002554-0.0000567
  10 h     dx  0.0009855 0.0001920 0.0001187-0.0004521-0.0003514-0.0000589
           dy -0.0003063-0.0000120 0.0000964 0.0003572-0.0000387 0.0000725
           dz  0.0000198-0.0002554-0.0000567-0.0000229-0.0000223-0.0000054

   ATOM              9 h                          10 h 
                  dx        dy        dz        dx        dy        dz
   9 h     dx  0.0429582
           dy -0.0083447 0.1373388
           dz -0.0104899 0.1322222 0.2165091
  10 h     dx -0.0002766-0.0016504 0.0015822 0.0429582
           dy -0.0016504 0.0112469-0.0151146-0.0083447 0.1373388
           dz -0.0015822 0.0151146-0.0177087 0.0104899-0.1322222 0.2165091
 

   *** projected hessian written onto $hessian (projected), file=<hessian> ***

 dipole moment in principle axis system (a.u.) :
     0.0205130605     1.0230167790    -0.0000000000
 norm :   1.02322241757701     

 rotational constants b for rotations around axis of inertia
 and optical intensities for (1 <-- 0) transition

   b   :     0.3345568942     0.2768703230     0.1607738674   (cm**(-1))
   b   :       10029.7634        8300.3635        4819.8793     (MHz)
  int. :     0.0004207856     1.0465633302     0.0000000000     (a.u.)

   x   :     0.9999983143     0.0018361363     0.0000000000
   y   :    -0.0018361363     0.9999983143     0.0000000000
   z   :     0.0000000000     0.0000000000     1.0000000000

   ***  normal modes written onto $vibrational normal modes, file=<vib_normal_modes>  ***

 keyword $vibrational reduced masses missing in file <control>


   ***  vibrational spectroscopic data written onto$vibrational spectrum   
        file=<vibspectrum>  ***

          ---------------------------------------------------
          NORMAL MODES and VIBRATIONAL FREQUENCIES (cm**(-1))
          ---------------------------------------------------

 imaginary wave numbers indicate a negative curvature of the energy surface.
 zero frequency modes have no physical meaning except being generators of
 translations and rotations. each vibrational normal mode - given in terms of
 cartesian displacement vectors of all atoms - has been normalized to unity.
 to obtain mass-weigthed normal coordinates in a.u. divide the tabulated
 modes by sqrt(reduced mass * 1822.88853).
 band intensities or cross sections refer to independent non-degenerate normal
 modes, that is, the intensities of degenerate modes have yet to be added.
 dDIP/dQ is the normal mode derivative of the dipole moment.

 WARNING: values of IR intensities are questionable for saddle point structures


       mode               1        2        3        4        5        6

     frequency        i113.75     0.00     0.00     0.00     0.00     0.00

     symmetry            a"                                               

        IR               YES       -        -        -        -        - 
|dDIP/dQ|   (a.u.)     0.0000   0.0000   0.0000   0.0000   0.0000   0.0000
intensity (km/mol)       0.00     0.00     0.00     0.00     0.00     0.00
intensity (  %   )       0.00     0.00     0.00     0.00     0.00     0.00
 
       RAMAN             YES       -        -        -        -        - 
 
  1   o           x  -0.00000  0.00211 -0.08881 -0.03754  0.00401  0.06653
                  y  -0.00000 -0.04562 -0.03848  0.24001 -0.08649 -0.07006
                  z   0.04920 -0.20845  0.38687 -0.12256 -0.15067 -0.06264
  2   c           x   0.00000 -0.02345  0.02492  0.05994 -0.04445  0.27573
                  y  -0.00000 -0.02989 -0.10848  0.18001 -0.05667 -0.19882
                  z  -0.00463  0.16741  0.35983  0.18997  0.21741 -0.00862
  3   c           x   0.00000 -0.02287  0.02234  0.05774 -0.04336  0.27100
                  y   0.00000 -0.06242  0.03627  0.30408 -0.11835  0.06746
                  z  -0.04844  0.30557  0.06269 -0.05811 -0.27569 -0.01640
  4   c           x   0.00000 -0.01314 -0.02093  0.02065 -0.02492  0.19140
                  y  -0.00000 -0.04604 -0.03662  0.24160 -0.08729 -0.06663
                  z   0.01476  0.06061  0.27996 -0.00948 -0.07874 -0.03239
  5   h           x   0.00000 -0.03717  0.08599  0.11229 -0.07048  0.38809
                  y  -0.00000 -0.03201 -0.09903  0.18811 -0.06069 -0.18144
                  z   0.49283  0.41745  0.24748  0.27862  0.25582  0.01824
  6   h           x   0.00000 -0.01412 -0.01658  0.02437 -0.02677  0.19940
                  y   0.00000 -0.07319  0.08416  0.34513 -0.13875  0.15555
                  z  -0.17600  0.20144  0.02218 -0.20536 -0.48271 -0.03598
  7   h           x   0.28911  0.03086 -0.09367 -0.03677 -0.20600  0.24523
                  y  -0.39613 -0.21767 -0.06683  0.06615 -0.09953 -0.28297
                  z  -0.32814  0.07251  0.45318  0.22041  0.31380 -0.01393
  8   h           x  -0.28911 -0.07085  0.11281  0.13036  0.13017  0.24978
                  y   0.39613  0.17304 -0.21751  0.23612  0.01490 -0.23861
                  z  -0.32814  0.07251  0.45318  0.22041  0.31380 -0.01393
  9   h           x  -0.07583  0.01971 -0.04396  0.00583 -0.22736  0.33682
                  y  -0.08110 -0.25865  0.11481  0.22171 -0.17694  0.05101
                  z   0.00756  0.45446 -0.00000  0.00000 -0.24361  0.00000
 10   h           x   0.07583 -0.08209  0.16269  0.17310  0.10910  0.34137
                  y   0.08110  0.13239 -0.03600  0.39182 -0.06241  0.09541
                  z   0.00756  0.45446  0.00000  0.00000 -0.24361  0.00000

reduced mass(g/mol)     1.073    3.157    5.898    4.650    3.208    3.804


       mode               7        8        9       10       11       12

     frequency           0.00   157.28   372.62   482.93   510.25   764.50

     symmetry                     a"       a'       a"       a'       a'  

        IR                -       YES      YES      YES      YES      YES
|dDIP/dQ|   (a.u.)     0.0000   0.0006   0.0010   0.0002   0.0026   0.0011
intensity (km/mol)       0.00     0.56     1.62     0.09    11.66     2.13
intensity (  %   )       0.00     0.35     1.01     0.06     7.28     1.33
 
       RAMAN              -       YES      YES      YES      YES      YES
 
  1   o           x   0.41683  0.00000 -0.00202 -0.00000 -0.30338  0.01637
                  y   0.04132 -0.00000 -0.13173  0.00000 -0.01027 -0.15249
                  z   0.08419 -0.04194 -0.00000 -0.10981 -0.00000 -0.00000
  2   c           x   0.05661 -0.00000 -0.15353 -0.00000  0.12972  0.25588
                  y   0.26303  0.00000  0.10217 -0.00000  0.15827  0.09816
                  z   0.09036  0.03831 -0.00000 -0.02475  0.00000 -0.00000
  3   c           x   0.06475 -0.00000  0.15130  0.00000  0.11330 -0.26482
                  y  -0.19546 -0.00000  0.09522 -0.00000 -0.15172  0.12899
                  z   0.01212  0.00319 -0.00000 -0.00355  0.00000  0.00000
  4   c           x   0.20181 -0.00000  0.00089  0.00000  0.13112 -0.00110
                  y   0.03542 -0.00000 -0.12991  0.00000  0.00249 -0.13027
                  z   0.06407  0.01891 -0.00000  0.27488 -0.00000  0.00000
  5   h           x  -0.13685 -0.00000 -0.48067 -0.00000 -0.21290  0.02868
                  y   0.23310  0.00000  0.05041 -0.00000  0.10527  0.06975
                  z   0.06802  0.17736 -0.00000 -0.27404 -0.00000 -0.00000
  6   h           x   0.18805 -0.00000 -0.08593  0.00000  0.34096 -0.42224
                  y  -0.34715 -0.00000  0.38771 -0.00000 -0.42998  0.31167
                  z  -0.00304  0.48883 -0.00000 -0.31850  0.00000 -0.00000
  7   h           x   0.07813  0.05396 -0.07215  0.29513  0.21211  0.32881
                  y   0.38371 -0.10868  0.29857  0.24012  0.37329  0.29587
                  z   0.11306 -0.03246  0.00552 -0.15284  0.01161  0.01636
  8   h           x   0.13229 -0.05396 -0.07215 -0.29513  0.21211  0.32881
                  y   0.35577  0.10868  0.29857 -0.24012  0.37329  0.29587
                  z   0.11306 -0.03246 -0.00552 -0.15284 -0.01161 -0.01636
  9   h           x  -0.07960  0.18565  0.37944 -0.39216 -0.09751 -0.20217
                  y  -0.19139  0.45313  0.12585  0.15377 -0.18332  0.14639
                  z  -0.00000 -0.32776 -0.00784 -0.14852  0.01018 -0.00576
 10   h           x  -0.02540 -0.18565  0.37944  0.39216 -0.09751 -0.20217
                  y  -0.21935 -0.45313  0.12585 -0.15377 -0.18332  0.14639
                  z   0.00000 -0.32776  0.00784 -0.14852 -0.01018  0.00576

reduced mass(g/mol)     5.606    1.055    2.180    2.027    3.434    3.328


       mode              13       14       15       16       17       18

     frequency         847.27   883.74  1033.97  1070.10  1191.20  1325.01

     symmetry            a"       a'       a'       a"       a'       a'  

        IR               YES      YES      YES      YES      YES      YES
|dDIP/dQ|   (a.u.)     0.0004   0.0025   0.0009   0.0022   0.0073   0.0028
intensity (km/mol)       0.29    10.77     1.31     8.93    93.89    14.38
intensity (  %   )       0.18     6.73     0.82     5.58    58.65     8.98
 
       RAMAN             YES      YES      YES      YES      YES      YES
 
  1   o           x  -0.00000 -0.02543  0.00231 -0.00000 -0.05861 -0.00438
                  y   0.00000  0.00344  0.10928 -0.00000  0.00441 -0.00481
                  z   0.00887 -0.00000 -0.00000 -0.03972  0.00000  0.00000
  2   c           x  -0.00000  0.04893  0.05685 -0.00000 -0.09528  0.07083
                  y   0.00000  0.13177 -0.13378  0.00000  0.03471  0.03751
                  z  -0.09871  0.00000 -0.00000 -0.12919  0.00000 -0.00000
  3   c           x   0.00000  0.00883 -0.04740  0.00000 -0.10140 -0.09920
                  y  -0.00000 -0.13705 -0.11294  0.00000 -0.05874  0.06612
                  z   0.09053 -0.00000  0.00000 -0.13327  0.00000 -0.00000
  4   c           x  -0.00000 -0.10674 -0.01233  0.00000  0.35947  0.03222
                  y   0.00000 -0.00362  0.04506 -0.00000  0.01218 -0.00465
                  z  -0.00868 -0.00000  0.00000  0.23053 -0.00000 -0.00000
  5   h           x   0.00000  0.56453 -0.52142  0.00000 -0.05156 -0.29573
                  y   0.00000  0.21566 -0.21973  0.00000  0.02043 -0.02474
                  z   0.25154 -0.00000 -0.00000  0.30264 -0.00000  0.00000
  6   h           x  -0.00000 -0.31827 -0.35028 -0.00000 -0.48655  0.18935
                  y   0.00000  0.27153  0.26893  0.00000  0.41366 -0.28671
                  z  -0.22614  0.00000 -0.00000  0.29357 -0.00000  0.00000
  7   h           x  -0.40951 -0.03713  0.12207 -0.38597 -0.18980 -0.30026
                  y  -0.21673 -0.17876  0.30561 -0.13219 -0.35118 -0.18174
                  z   0.12035 -0.03584  0.08598  0.10483 -0.05827  0.17636
  8   h           x   0.40951 -0.03713  0.12207  0.38597 -0.18980 -0.30026
                  y   0.21673 -0.17876  0.30561  0.13219 -0.35118 -0.18174
                  z   0.12035  0.03584 -0.08598  0.10483  0.05827 -0.17636
  9   h           x  -0.38405  0.40768  0.31262  0.32467 -0.04587  0.36536
                  y   0.21559 -0.03918  0.00395 -0.27049  0.16973 -0.21412
                  z  -0.10303 -0.04678 -0.06195  0.10253 -0.14986  0.22900
 10   h           x   0.38405  0.40768  0.31262 -0.32467 -0.04587  0.36536
                  y  -0.21559 -0.03918  0.00395  0.27049  0.16973 -0.21412
                  z  -0.10303  0.04678  0.06195  0.10253  0.14986 -0.22900

reduced mass(g/mol)     1.207    1.568    1.609    1.995    2.747    1.247


       mode              19       20       21       22       23       24

     frequency        1326.94  1395.67  1411.52  1415.09  1417.77  1771.88

     symmetry            a'       a'       a"       a'       a"       a'  

        IR               YES      YES      YES      YES      YES      YES
|dDIP/dQ|   (a.u.)     0.0063   0.0033   0.0010   0.0016   0.0032   0.0095
intensity (km/mol)      71.48    18.88     1.68     4.30    18.38   160.09
intensity (  %   )      44.65    11.79     1.05     2.69    11.48   100.00
 
       RAMAN             YES      YES      YES      YES      YES      YES
 
  1   o           x  -0.00779 -0.00225 -0.00000  0.00840  0.00000  0.01356
                  y   0.00576  0.02567 -0.00000  0.00642  0.00000 -0.48840
                  z  -0.00000  0.00000 -0.00184  0.00000 -0.00538  0.00000
  2   c           x  -0.11716  0.00032 -0.00000  0.02680  0.00000  0.00400
                  y  -0.03627  0.01345 -0.00000  0.06144  0.00000 -0.04364
                  z   0.00000  0.00000  0.03665  0.00000  0.03728  0.00000
  3   c           x  -0.09426  0.05318 -0.00000  0.00370  0.00000  0.00794
                  y   0.04280  0.02485  0.00000 -0.01404 -0.00000 -0.04548
                  z   0.00000 -0.00000 -0.04916 -0.00000  0.02593 -0.00000
  4   c           x   0.06431 -0.00440  0.00000 -0.05267 -0.00000 -0.02486
                  y   0.00246 -0.01066  0.00000 -0.00220 -0.00000  0.74626
                  z   0.00000 -0.00000 -0.00354 -0.00000  0.03713  0.00000
  5   h           x   0.31477 -0.12087  0.00000 -0.53658 -0.00000 -0.22150
                  y   0.03143 -0.01070  0.00000 -0.04001 -0.00000 -0.07131
                  z  -0.00000 -0.00000 -0.41633 -0.00000 -0.58902 -0.00000
  6   h           x   0.12278 -0.25162 -0.00000  0.07425  0.00000 -0.15757
                  y  -0.21962  0.38711  0.00000 -0.09481 -0.00000  0.20068
                  z  -0.00000  0.00000  0.61036  0.00000 -0.39739  0.00000
  7   h           x   0.40873  0.09384 -0.02965  0.27006 -0.09009  0.07178
                  y   0.12011 -0.09757 -0.25890 -0.38888 -0.40059  0.02997
                  z  -0.29764 -0.09519 -0.03198 -0.29869 -0.03534 -0.03159
  8   h           x   0.40873  0.09384  0.02965  0.27006  0.09009  0.07178
                  y   0.12011 -0.09757  0.25890 -0.38888  0.40059  0.02997
                  z   0.29764  0.09519 -0.03198  0.29869 -0.03534  0.03159
  9   h           x   0.31081 -0.18232 -0.36575  0.02654  0.26178  0.08715
                  y  -0.12526 -0.45896 -0.14298  0.13597  0.08217 -0.13378
                  z   0.14471  0.33551  0.04512 -0.10780 -0.02664  0.08768
 10   h           x   0.31081 -0.18232  0.36575  0.02654 -0.26178  0.08715
                  y  -0.12526 -0.45896  0.14298  0.13597 -0.08217 -0.13378
                  z  -0.14471 -0.33551  0.04512  0.10780 -0.02664 -0.08768

reduced mass(g/mol)     1.338    1.059    1.050    1.092    1.046   10.766


       mode              25       26       27       28       29       30

     frequency        2935.92  2950.81  3011.16  3036.78  3053.95  3072.08

     symmetry            a'       a'       a"       a"       a'       a'  

        IR               YES      YES      YES      YES      YES      YES
|dDIP/dQ|   (a.u.)     0.0010   0.0012   0.0017   0.0010   0.0026   0.0021
intensity (km/mol)       1.72     2.54     5.02     1.91    12.26     7.71
intensity (  %   )       1.07     1.59     3.14     1.20     7.66     4.81
 
       RAMAN             YES      YES      YES      YES      YES      YES
 
  1   o           x  -0.00020  0.00012  0.00000 -0.00000  0.00033  0.00018
                  y  -0.00069 -0.00042  0.00000 -0.00000 -0.00036  0.00109
                  z  -0.00000 -0.00000  0.00024  0.00025  0.00000 -0.00000
  2   c           x  -0.00495  0.04679  0.00000  0.00000 -0.04367  0.00303
                  y  -0.00297  0.01958  0.00000 -0.00000  0.08379 -0.00518
                  z  -0.00000  0.00000 -0.00123 -0.09206 -0.00000 -0.00000
  3   c           x  -0.03180 -0.00371 -0.00000  0.00000 -0.00391 -0.05688
                  y   0.04186  0.00491 -0.00000  0.00000 -0.00472 -0.07396
                  z   0.00000 -0.00000  0.09178 -0.00116  0.00000 -0.00000
  4   c           x   0.00191 -0.00149 -0.00000  0.00000 -0.00183 -0.00014
                  y   0.00044 -0.00064 -0.00000  0.00000  0.00073 -0.00276
                  z  -0.00000  0.00000  0.00054 -0.00087 -0.00000  0.00000
  5   h           x  -0.01165  0.09064  0.00000 -0.00000  0.13433 -0.00695
                  y   0.06920 -0.52493 -0.00000  0.00000 -0.82891  0.05536
                  z  -0.00000  0.00000  0.00043 -0.01210 -0.00000 -0.00000
  6   h           x   0.30746  0.03743  0.00000 -0.00000  0.04990  0.70907
                  y   0.25797  0.02953  0.00000 -0.00000  0.04004  0.57724
                  z  -0.00000 -0.00000  0.01295 -0.00007  0.00000 -0.00000
  7   h           x   0.03293 -0.31537  0.00389  0.38866  0.19923 -0.01273
                  y  -0.01690  0.15136 -0.00117 -0.17999 -0.08421  0.00553
                  z   0.05137 -0.47757  0.00643  0.55873  0.30662 -0.01830
  8   h           x   0.03293 -0.31537 -0.00389 -0.38866  0.19923 -0.01273
                  y  -0.01690  0.15136  0.00117  0.17999 -0.08421  0.00553
                  z  -0.05137  0.47757  0.00643  0.55873 -0.30662  0.01830
  9   h           x   0.02841  0.00263  0.03485 -0.00119  0.00035 -0.01808
                  y  -0.37552 -0.04245 -0.42824  0.00461  0.00605  0.15752
                  z  -0.51939 -0.05854 -0.55771  0.00598  0.00808  0.22453
 10   h           x   0.02841  0.00263 -0.03485  0.00119  0.00035 -0.01808
                  y  -0.37552 -0.04245  0.42824 -0.00461  0.00605  0.15752
                  z   0.51939  0.05854 -0.55771  0.00598 -0.00808 -0.22453

reduced mass(g/mol)     1.039    1.037    1.101    1.101    1.107    1.104
 

         **************************************************************
         *                                                            *
         *  zero point VIBRATIONAL energy  :      0.0807347  Hartree  *
         *    SCF-energy                   :   -193.0049629           *
         *    SCF + E(vib0)                :   -192.9242282           *
         *                                                            *
         **************************************************************




 time elapsed for vibrational analysis     0.01 sec


    ------------------------------------------------------------------------
         total  cpu-time :   7.39 seconds
         total wall-time :   7.43 seconds
    ------------------------------------------------------------------------

   ****  force : all done  ****


    2021-06-10 14:04:09.970 

