
 define (localhost.localdomain) : TURBOMOLE V7.3.1 () 25 Feb 2019 at 10:12:05
 Copyright (C) 2019 TURBOMOLE GmbH, Karlsruhe


    2021-05-21 11:52:47.337 

                    HOST NAME = localhost.localdomain
             OPERATING SYSTEM = unix
   STANDARD BASIS SET LIBRARY = /run/media/waroquiers/2A089C5C089C28B9/Users/waroquiers/TURBOMOLE_EXECUTABLES/turbolinux731/TURBOMOLE//basen/
  ALTERNATE BASIS SET LIBRARY = /run/media/waroquiers/2A089C5C089C28B9/Users/waroquiers/TURBOMOLE_EXECUTABLES/turbolinux731/TURBOMOLE//basold/
 LIBRARY FOR RI-J  BASIS SETS = /run/media/waroquiers/2A089C5C089C28B9/Users/waroquiers/TURBOMOLE_EXECUTABLES/turbolinux731/TURBOMOLE//jbasen/
 LIBRARY FOR RI-JK BASIS SETS = /run/media/waroquiers/2A089C5C089C28B9/Users/waroquiers/TURBOMOLE_EXECUTABLES/turbolinux731/TURBOMOLE//jkbasen/
 LIBRARY FOR RIMP2/RICC2 SETS = /run/media/waroquiers/2A089C5C089C28B9/Users/waroquiers/TURBOMOLE_EXECUTABLES/turbolinux731/TURBOMOLE//cbasen/
 LIBRARY FOR RIR12 BASIS SETS = /run/media/waroquiers/2A089C5C089C28B9/Users/waroquiers/TURBOMOLE_EXECUTABLES/turbolinux731/TURBOMOLE//cabasen/
 LIBRARY FOR OEP   BASIS SETS = /run/media/waroquiers/2A089C5C089C28B9/Users/waroquiers/TURBOMOLE_EXECUTABLES/turbolinux731/TURBOMOLE//xbasen/
            STRUCTURE LIBRARY = /run/media/waroquiers/2A089C5C089C28B9/Users/waroquiers/TURBOMOLE_EXECUTABLES/turbolinux731/TURBOMOLE//structures/
 

 ***********************************************************
 *                                                         *
 *                       D E F I N E                       *
 *                                                         *
 *         TURBOMOLE'S  INTERACTIVE  INPUT  PROGRAM        *
 *                                                         *
 *  Quantum Chemistry Group       University of Karlsruhe  *
 *                                                         *
 ***********************************************************


 DATA WILL BE WRITTEN TO THE NEW FILE control

 IF YOU WANT TO READ DEFAULT-DATA FROM ANOTHER control-TYPE FILE,
 THEN ENTER ITS LOCATION/NAME OR OTHERWISE HIT >return<.

qq
