 operating system is UNIX !

 ridft (ucl-laptop) : TURBOMOLE V7.3 ( 22118 ) 1 Jul 2018 at 20:38:15
 Copyright (C) 2018 TURBOMOLE GmbH, Karlsruhe


    2019-07-13 00:59:22.951 



                                  r i d f t

                        DFT program with RI approximation 
                                for coulomb part 




                                                 
                                 References:     
                                                 
          TURBOMOLE:                             
              R. Ahlrichs, M. Baer, M. Haeser, H. Horn, and
              C. Koelmel
              Electronic structure calculations on workstation
              computers: the program system TURBOMOLE
              Chem. Phys. Lett. 162: 165 (1989)
          Density Functional:                              
              O. Treutler and R. Ahlrichs                      
              Efficient Molecular Numerical Integration Schemes
              J. Chem. Phys. 102: 346 (1995)                   
          Parallel Version:                                
              Performance of parallel TURBOMOLE for Density    
              Functional Calculations                          
              M. v. Arnim and R. Ahlrichs                      
              J. Comp. Chem. 19: 1746 (1998)                   
          RI-J Method:                                     
              Auxiliary Basis Sets to approximate Coulomb      
              Potentials                                       
              Chem. Phys. Lett. 240: 283 (1995)                
              K. Eichkorn, O. Treutler, H. Oehm, M. Haeser     
              and R. Ahlrichs                                  
              Chem. Phys. Lett. 242: 652 (1995)                
                                                           
              Auxiliary Basis Sets for Main Row Atoms and their
              Use to approximate Coulomb Potentials            
              K. Eichkorn, F. Weigend, O. Treutler and         
              R. Ahlrichs                                      
              Theo. Chem. Acc. 97: 119 (1997)                   
                                                           
              Accurate Coulomb-fitting basis sets for H to Rn 
              F. Weigend                                        
              Phys. Chem. Chem. Phys. 8: 1057 (2006)            
                                                           
          Multipole accelerated RI-J (MARI-J):             
              Fast evaluation of the Coulomb potential for     
              electron densities using multipole accelerated   
              resolution of identity approximation             
              M. Sierka, A. Hogekamp and R. Ahlrichs           
              J. Chem. Phys. 118: 9136 (2003)                  
          RI-JK Method:                                     
              A fully direct RI-HF algorithm: Implementation,
              optimised auxiliary basis sets, demonstration of
              accuracy and efficiency                         
              F. Weigend                                      
              Phys. Chem. Chem. Phys. 4: 4285 (2002)           
          Two-component HF and DFT with spin-orbit coupling:  
              Self-consistent treatment of spin-orbit         
              interactions with efficient Hartree-Fock and    
              density functional methods                      
              M. K. Armbruster, F. Weigend, C. van Wüllen and 
              W. Klopper                                      
              Phys. Chem. Chem. Phys. 10: 1748 (2008)         
          Two-component difference density and DIIS algorithm 
              Efficient two-component self-consistent field   
              procedures and gradients: implementation in     
              TURBOMOLE and application to Au20-              
              A. Baldes, F. Weigend                           
              Mol. Phys. 111: 2617 (2013)                     
          Relativistic all-electron 2c calculations           
              An efficient implementation of two-component    
              relativistic exact-decoupling methods for large 
              molecules                                       
              D. Peng, N. Middendorf, F. Weigend, M. Reiher   
              J. Chem. Phys. 138: 184105 (2013)               
          Finite nucleus model and SNSO approximation         
              Efficient implementation of one- and two-       
              component analytical energy gradients in exact  
              two-component theory                            
              Y. J. Franzke, N. Middendorf, F. Weigend        
              J. Chem. Phys. 148: 104110 (2018)               
                                         




              +--------------------------------------------------+
              |      general information about current run       |
              +--------------------------------------------------+

 
 B-P86 functional
 exchange:    LDA + Becke (B88)
 correlation: LDA (VWN) + Perdew (P86)
 A DFT calculation using the RI-J approximation will be carried out.
 Allocatable memory for RI due to $ricore (MB):                   500
 Multipole approximation for Coulomb integrals is used

   *************************************************************************
   ridft                                                                    
   *************************************************************************




              +--------------------------------------------------+
              | Atomic coordinate, charge and isotop information |
              +--------------------------------------------------+

                    atomic coordinates            atom    charge  isotop
          0.00000000    0.00000000   -0.72557892    o      8.000     0
          1.41713421    0.00000000    0.36278946    h      1.000     0
         -1.41713421    0.00000000    0.36278946    h      1.000     0
 
       center of nuclear mass  :    0.00000000    0.00000000   -0.60378908
       center of nuclear charge:    0.00000000    0.00000000   -0.50790525

              +--------------------------------------------------+
              |               basis set information              |
              +--------------------------------------------------+

              we will work with the 1s 3p 5d 7f 9g ... basis set
              ...i.e. with spherical basis functions...

   type   atoms  prim   cont   basis
   ---------------------------------------------------------------------------
    o        1     24     14   def-SV(P)   [3s2p1d|7s4p1d]
    h        2      4      2   def-SV(P)   [2s|4s]
   ---------------------------------------------------------------------------
   total:    3     32     18
   ---------------------------------------------------------------------------

   total number of primitive shells          :   16
   total number of contracted shells         :   10
   total number of cartesian basis functions :   19
   total number of SCF-basis functions       :   18


 integral neglect threshold       :  0.18E-08
 integral storage threshold THIZE :  0.10E-04
 integral storage threshold THIME :         5

 RI-J AUXILIARY BASIS SET information:

              we will work with the 1s 3p 5d 7f 9g ... basis set
              ...i.e. with spherical basis functions...

   type   atoms  prim   cont   basis
   ---------------------------------------------------------------------------
    o        1     39     37   def-SV(P)   [6s3p3d1f|8s3p3d1f]
    h        2     10      5   def-SV(P)   [2s1p|4s2p]
   ---------------------------------------------------------------------------
   total:    3     59     47
   ---------------------------------------------------------------------------

   total number of primitive shells          :   21
   total number of contracted shells         :   19
   total number of cartesian basis functions :   53
   total number of SCF-basis functions       :   47


 symmetry group of the molecule :   c1 

 the group has the following generators :
   c1(z)

    1 symmetry operations found

 there are 1 real representations :   a   

 maximum number of shells which are related by symmetry :  1


    mo occupation :
   irrep   mo's   occupied
    a       18        5
 
 number of basis functions   :                     18
 number of occupied orbitals :                      5
 
  
           ------------------
           density functional
           ------------------
 B-P86 functional
 exchange:    LDA + Becke (B88)
 correlation: LDA (VWN) + Perdew (P86)

 iterations will be done with small grid
  
 spherical integration : Lebedev's spherical grid
 spherical gridsize    :                     3
    i.e. gridpoints    :                   302
 value for diffuse not defined
 radial integration    : Chebyshev 2nd kind (scaling 3)
 radial gridsize       :                     3
 integration cells     :                     3
 partition function    : becke
 partition sharpness   :                     3
  

 biggest AO integral is expected to be     4.776656448
  
           ------------------------
               RI-J - INFORMATION
           ------------------------
 
    +---------------- Multipole Accelerated RI-J ---------------+
    -------------------------------------------------------------
      Number of bins for density partition        :  8
      Maximum multipole moment used               : 14
      Multipole precision parameter               :  1.0000E-08
      Threshold for moment summation              :  1.0000E-24
      Minimum separation between boxes            :  0.0000E+00
      Maximum allowed extent                      :  2.0000E+01
    +-----------------------------------------------------------+
 
 Extensions and centers of shell-pairs:
  number of shells with a single center:       53
  number of shells with double centers:         2
 Contributions to RI integral batches: 
  neglected integral batches:                         0
  multipole/direct contribution:                      0
  multipole/memory contribution:                     55
 Memory core needed for (P|Q) and Cholesky      1 MByte
 Memory core minimum needed except of (P|Q)     1 MByte
 Total minimum memory core needed (sum)         1 MByte
  
 ****************************************
 Memory allocated for RI-J     1 MByte
 ****************************************
                                            

          ------------------------
          nuclear repulsion energy  :   9.30715477358    
          ------------------------

 
 ------------------------------------------------------------
 DFT-D (empirical dispersive energy correction) switched on
  cf. S. Grimme, J. Comp. Chem. 25, 1463-1473 (2004)
  new parameters and C6ij from:
      S. Grimme, J. Comp. Chem. 27, 1787-1799 (2006)
  
 flag (0th, 1st or 2nd deriv.)           0
 new parameters used (C6ij=sqrt(C6i*C6j))
  
 
 global scaling parameter (s6)          1.050
 exponent of damping function (d)      20.000
  
  atomic number, C_6 coefficients and vdW radii (atomic units)
     8      12.1416943       2.3054659
     1       2.4283389       1.7196508
 
 --------------------------------------------------------------
 nuclear repulsion energy                  =       9.307154774
 empirical dispersive energy correction    =      -0.000034691
 nuclear repulsion + dispersion correction =       9.307120083


         -----------------
         -S,T+V- integrals
         -----------------

 1e-integrals will be neglected if expon. factor < 0.175893E-09
 
   Difference densities algorithm switched on.
   The maximal number of linear combinations of
   difference densities is                    20 .

 DIIS switched on: error vector is FDS-SDF
 Max. Iterations for DIIS is     :   4
 DIIS matrix (see manual) 
    Scaling factor of diagonals  :  1.200
    threshold for scaling factor :  0.000

 scf convergence criterion : increment of total energy < .1000000D-05
                  and increment of one-electron energy < .1000000D-02

  MOs are in ASCII format !


 automatic virtual orbital shift switched on 
      shift if e(lumo)-e(homo) < 0.10000000    


 reading orbital data $scfmo  from file mos
 orbital characterization : expanded
 mo provided and orthogonalized by Cholesky decomposition

 DSCF restart information will be dumped onto file mos


 Starting SCF iterations

          Overall gridpoints after grid construction =          3534

 ITERATION  ENERGY          1e-ENERGY        2e-ENERGY     NORM[dD(SAO)]  TOL
   1  -76.143984807101    -124.43866883     38.987563939    0.000D+00 0.175D-08
                            Exc = -9.50366130895     Coul =  48.4912252482    
                              N = 9.9990627195    
                            current damping = 0.700
 
          max. resid. norm for Fia-block=  2.533D-01 for orbital      4a         
          max. resid. fock norm         =  1.255D+00 for orbital      8a         

 ITERATION  ENERGY          1e-ENERGY        2e-ENERGY     NORM[dD(SAO)]  TOL
   2  -76.300235800052    -123.25446485     37.647108968    0.374D+00 0.114D-08
                            Exc = -9.33427035394     Coul =  46.9813793220    
                              N = 9.9993009969    
                            current damping = 0.650
 
          Norm of current diis error: 0.44401    
          max. resid. norm for Fia-block=  1.249D-01 for orbital      1a         
          max. resid. fock norm         =  1.286D-01 for orbital      6a         

 ITERATION  ENERGY          1e-ENERGY        2e-ENERGY     NORM[dD(SAO)]  TOL
   3  -76.332350109023    -123.42172063     37.782250440    0.181D+00 0.864D-09
                            Exc = -9.37441170002     Coul =  47.1566621396    
                              N = 9.9992992259    
                            current damping = 0.600
 
          Norm of current diis error: 0.20485    
          max. resid. norm for Fia-block=  4.892D-02 for orbital      1a         
          max. resid. fock norm         =  5.174D-02 for orbital      9a         

 ITERATION  ENERGY          1e-ENERGY        2e-ENERGY     NORM[dD(SAO)]  TOL
   4  -76.341235341778    -123.18663386     37.538278440    0.557D-01 0.733D-09
                            Exc = -9.35322868938     Coul =  46.8915071289    
                              N = 9.9993314534    
                            current damping = 0.650
 
          Norm of current diis error: 0.71755E-01
          max. resid. norm for Fia-block=  1.899D-02 for orbital      1a         
          max. resid. fock norm         =  2.223D-02 for orbital      6a         

 ITERATION  ENERGY          1e-ENERGY        2e-ENERGY     NORM[dD(SAO)]  TOL
   5  -76.342491816817    -123.25628454     37.606672645    0.144D-01 0.678D-09
                            Exc = -9.36750269133     Coul =  46.9741753365    
                              N = 9.9993290628    
                            current damping = 0.700
 
          Norm of current diis error: 0.29546E-01
          max. resid. norm for Fia-block=  7.291D-03 for orbital      1a         
          max. resid. fock norm         =  8.455D-03 for orbital      6a         
          mo-orthogonalization: Cholesky decomposition

 ITERATION  ENERGY          1e-ENERGY        2e-ENERGY     NORM[dD(SAO)]  TOL
   6  -76.342721151603    -123.22456741     37.574726179    0.225D-02 0.644D-09
                            Exc = -9.36508315346     Coul =  46.9398093322    
                              N = 9.9993351149    
                            current damping = 0.750
 
          Norm of current diis error: 0.11229E-01
          max. resid. norm for Fia-block=  3.081D-03 for orbital      1a         
          max. resid. fock norm         =  3.656D-03 for orbital      6a         

 ITERATION  ENERGY          1e-ENERGY        2e-ENERGY     NORM[dD(SAO)]  TOL
   7  -76.342755221853    -123.23004058     37.580165274    0.344D-03 0.622D-09
                            Exc = -9.36656388737     Coul =  46.9467291613    
                              N = 9.9993355881    
                            current damping = 0.800
 
          Norm of current diis error: 0.48113E-02
          max. resid. norm for Fia-block=  1.299D-03 for orbital      1a         
          max. resid. fock norm         =  1.539D-03 for orbital      6a         

 ITERATION  ENERGY          1e-ENERGY        2e-ENERGY     NORM[dD(SAO)]  TOL
   8  -76.342761648418    -123.22831970     37.578437966    0.373D-04 0.606D-09
                            Exc = -9.36664076316     Coul =  46.9450787292    
                              N = 9.9993363102    
                            current damping = 0.850
 
          Norm of current diis error: 0.21109E-02
          max. resid. norm for Fia-block=  5.834D-04 for orbital      1a         
          max. resid. fock norm         =  7.003D-04 for orbital      6a         

 ENERGY CONVERGED !

          Overall gridpoints after grid construction =         13740

 ITERATION  ENERGY          1e-ENERGY        2e-ENERGY     NORM[dD(SAO)]  TOL
   9  -76.343040568072    -123.22914165     37.578981004    0.395D-05 0.591D-09
                            Exc = -9.36716155608     Coul =  46.9461425597    
                              N = 9.9999983755    
                            current damping = 0.900
 
          Norm of current diis error: 0.97452E-03
          max. resid. norm for Fia-block=  2.639D-04 for orbital      1a         
          max. resid. fock norm         =  3.141D-04 for orbital      6a         

 End of SCF iterations

   convergence criteria satisfied after     9 iterations


   *************************************************************************
   ridft                                                                    
   *************************************************************************


                  ------------------------------------------ 
                 |  total energy      =    -76.34304056807  |
                  ------------------------------------------ 
                 :  kinetic energy    =     75.98608554045  :
                 :  potential energy  =   -152.32912610852  :
                 :  virial theorem    =      1.99532432786  :
                 :  wavefunction norm =      1.00000000000  :
                  .......................................... 


 <geterg> : there is no data group $energy 


 <skperg> : $end is missing 


 orbitals $scfmo  will be written to file mos

    irrep                  1a          2a          3a          4a          5a   
 eigenvalues H        -18.75039    -0.90848    -0.47812    -0.31006    -0.23510
            eV        -510.2281    -24.7211    -13.0105     -8.4372     -6.3975
 occupation              2.0000      2.0000      2.0000      2.0000      2.0000 

    irrep                  6a          7a          8a          9a         10a   
 eigenvalues H          0.03389     0.11345     0.54375     0.63292     0.86088
            eV           0.9222      3.0872     14.7963     17.2227     23.4261
 
 
 
 
 ==============================================================================
                           electrostatic moments
 ==============================================================================

 reference point for electrostatic moments:    0.00000   0.00000   0.00000

 
              nuc           elec       ->  total
 ------------------------------------------------------------------------------
                          charge      
 ------------------------------------------------------------------------------
          10.000000     -10.000000      -0.000000
 
 ------------------------------------------------------------------------------
                       dipole moment  
 ------------------------------------------------------------------------------
   x       0.000000       0.000000       0.000000
   y       0.000000      -0.000000      -0.000000
   z      -5.079052       5.912865       0.833812
 
   | dipole moment | =     0.8338 a.u. =     2.1193 debye 
 
 ------------------------------------------------------------------------------
                     quadrupole moment
 ------------------------------------------------------------------------------
  xx       4.016539      -7.255068      -3.238529
  yy       0.000000      -5.264134      -5.264134
  zz       4.474951      -9.814013      -5.339063
  xy       0.000000      -0.000000      -0.000000
  xz       0.000000       0.000000       0.000000
  yz       0.000000       0.000000       0.000000
 
     1/3  trace=      -4.613908
     anisotropy=       2.064090
 
 ==============================================================================
 


    ------------------------------------------------------------------------
         total  cpu-time :   0.08 seconds
         total wall-time :   0.18 seconds
    ------------------------------------------------------------------------

   ****  ridft : all done  ****


    2019-07-13 00:59:23.105 

