
 egrad (fedora) : TURBOMOLE V7.3.1 () 25 Feb 2019 at 10:12:05
 Copyright (C) 2019 TURBOMOLE GmbH, Karlsruhe


    2021-09-20 09:39:25.696 




                               e g r a d

                             TURBOMOLE GmbH


             integral direct evaluation of excited state
                     and polarizability gradients
                 and first-order nonadiabatic couplings



          references (see also programs escf, dscf and ridft) 

          review 
          F. Furche and D. Rappoport,  
          "Density functional methods for excited states: 
          equilibrium structure and electronic spectra",
          ch. III of "Computational Photochemistry", ed. by 
          M. Olivucci, vol. 16 of "Theoretical and Computational 
          Chemistry", Elsevier, Amsterdam, 2005.

          nonorthonormal Krylov space methods 
          F. Furche, B. T. Krull, B. D. Nguyen, J. Kwon, 
          J. Chem. Phys. 144 (2016), 174105.

          RI-J method 
          D. Rappoport and F. Furche, 
          J. Chem. Phys. 122 (2005), 064105.

          Lagrangian method, implementation, benchmarks 
          F. Furche and R. Ahlrichs,
          J. Chem. Phys. 117 (2002), 7433;
          J. Chem. Phys. 121 (2004), 12772 (E).

          Polarizability derivatives, Raman intensities 
          D. Rappoport and F. Furche, 
          J. Chem. Phys. 126 (2007), 201104.

          First-order nonadiabatic couplings 
          R. Send and F. Furche, 
          J. Chem. Phys. 132 (2010), 044107.
                                     




              +--------------------------------------------------+
              | Atomic coordinate, charge and isotop information |
              +--------------------------------------------------+

                    atomic coordinates            atom    charge  isotop
          0.00000000    0.00000000   -3.04112594    c      6.000     0
          0.97212284    1.68376616   -3.67601852    h      1.000     0
          0.97212284   -1.68376616   -3.67601852    h      1.000     0
         -1.94424569    0.00000000   -3.67601852    h      1.000     0
          0.00000000    0.00000000    0.59622031    br    35.000     0
 
       center of nuclear mass  :    0.00000000    0.00000000    0.00000000
       center of nuclear charge:    0.00000000    0.00000000   -0.19107046

   *************************************************************************
   dscf_escf                                                                
   *************************************************************************



              +--------------------------------------------------+
              |               basis set information              |
              +--------------------------------------------------+

              we will work with the 1s 3p 5d 7f 9g ... basis set
              ...i.e. with spherical basis functions...

   type   atoms  prim   cont   basis
   ---------------------------------------------------------------------------
    c        1     24     14   def-SV(P)   [3s2p1d|7s4p1d]
    h        3      4      2   def-SV(P)   [2s|4s]
    br       1     74     32   def-SV(P)   [5s4p3d|14s10p6d]
   ---------------------------------------------------------------------------
   total:    5    110     52
   ---------------------------------------------------------------------------

   total number of primitive shells          :   46
   total number of contracted shells         :   24
   total number of cartesian basis functions :   56
   total number of SCF-basis functions       :   52


 residuum convergence criterium   :  0.10E-04


 integral neglect threshold       :  0.33E-10
 integral storage threshold THIZE :  0.10E-04
 integral storage threshold THIME :         5

 RPA SINGLET-EXCITATION-CALCULATION 
 
             FOUND DFT-FLAG !
 

 symmetry group of the molecule :   c1 

 the group has the following generators :
   c1(z)

    1 symmetry operations found

 there are 1 real representations :   a   

 maximum number of shells which are related by symmetry :  1

 IRREP of excited state :   a   
 

 determining totally symmetric integral contributions 
    - equivalent to irreducible tensor elements - 
 which can be formed within each triple of representations :

             representation triple      contributions

              a     a     a               1

    mo occupation :
   irrep   mo's   occupied
    a       52       22
 
 number of basis functions   :                     52
 number of occupied orbitals :                     22
 
  
           ------------------
           density functional
           ------------------
 B-P86 functional
 exchange:    LDA + Becke (B88)
 correlation: LDA (VWN) + Perdew (P86)

 iterations will be done with small grid
  
 spherical integration : Lebedev's spherical grid
 spherical gridsize    :                     3
    i.e. gridpoints    :                   302
 value for diffuse not defined
 radial integration    : Chebyshev 2nd kind (scaling 3)
 radial gridsize       :                     3
 integration cells     :                     5
 partition function    : becke
 partition sharpness   :                     3
  

 biggest AO integral is expected to be    21.668154127
  MOs are in ASCII format !


 reading orbital data $scfmo  from file mos
 orbital characterization : scfconv=6
 preparing numerical integration ....
          Overall gridpoints after grid construction =          7239

 Calculating ground state density on molecular grid

 Integral of ground state density: N =   43.99958459489915    



 number of non-frozen orbitals          :    52
 number of non-frozen occupied orbitals :    22



                        -------------------
                         excitation vector 
                        -------------------


 dimension of super-tensorspace: 1

          IRREP   tensor space dimension   number of roots

           a               660                  10

 maximum number of Davidson iterations set to   25


 machine precision: 2.22D-16


 logfile sing_a    will be constructed


                       Nonorthonormal Krylov Space Iteration


 total number of roots to be determined: 10


 maximum core memory set to   500 MB,
 corresponding to    19574 vectors in CAO basis


 maximum number of simultaneously treated vectors (including degeneracy):       18


 Iteration IRREP Converged      Max. Euclidean
                 roots          residual norm

    1       a        0        1.104432610621881D-01
 
    2       a        0        1.902309974629202D-02
 
    3       a        1        1.947044437629842D-03
 
    4       a        3        3.570462891700666D-04
 
    5       a        7        4.814042005322621D-05
 
    6       a       10        8.135156244460394D-06
 

 converged!


 Switching to fine grid

 preparing numerical integration ....
          Overall gridpoints after grid construction =         26176

 Calculating ground state density on molecular grid

 Integral of ground state density: N =   43.99999821249057    



 Iteration IRREP Converged      Max. Euclidean
                 roots          residual norm

    7       a        0        6.542510432776784D-05
 

 NOTE: Residual norms are larger than 1.00D-05 due to mgrid option!

 Eigenpairs written on logfile sing_a   



 IRREP   Vector     Eigenvalue           Euclidean residual norm

  a         1    5.269386572330188D-02    2.645416370051735D-05
            2    5.270338279286025D-02    2.216270723152882D-05
            3    8.897784054234922D-02    5.990746084165684D-05
            4    8.898896513633431D-02    3.602436629243037D-05
            5    1.143539647136936D-01    3.563623908782642D-05
            6    1.153720579818443D-01    6.213640989970947D-05
            7    1.153769411423444D-01    2.181166362049066D-05
            8    1.167702001306922D-01    5.750330642200480D-05
            9    1.509444165597774D-01    5.321575196445858D-05
           10    1.509635840444991D-01    6.542510432776784D-05
 




                    Selection rules for point group c1  


 Subduction with respect to c1  :

    Polar vector representation: a                           

    Axial vector representation: a                           

    Symmetric second rank tensor representation: a                           




                            Ground state


 Total energy:                           -2614.005271579000    

 Charge:

               elec          nuc         total

           -44.000000    44.000000    -0.000000


 Electric dipole moment:

               elec          nuc         total   

    x        0.000330     0.000000     0.000330    Norm:              0.683867
    y       -0.000000     0.000000    -0.000000
    z        7.723233    -8.407100    -0.683867    Norm / debye:      1.738231


 Electric quadrupole moment:

               elec          nuc         total   

   xx      -24.580502     5.670137   -18.910365
   yy      -24.579997     5.670137   -18.909860    1/3*trace:       -17.982545
   zz     -124.599181   108.471772   -16.127409
   xy        0.000000     0.000000     0.000000
   xz       -0.000361     0.000000    -0.000361    Anisotropy:        2.782704
   yz        0.000000     0.000000     0.000000



 ==============================================================================

                              I R R E P   a   

 ==============================================================================


 Excitation is electric dipole allowed

 Excitation is magnetic dipole allowed

 Excitation is electric quadrupole allowed




                         1 singlet a excitation


 Total energy:                           -2613.775720134388    

 Excitation energy:                      0.2295514446116641    

 Excitation energy / eV:                  6.246415300723803    

 Excitation energy / nm:                  198.4886339403364    

 Excitation energy / cm^(-1):             50380.71853279648    


 Oscillator strength:

    velocity representation:             0.1881183177393415E-03

    length representation:               0.8016017143165347E-05

    mixed representation:                0.3879362815953480E-04


 Rotatory strength:

    velocity representation:            -0.2862318009572018E-14

    velocity rep. / 10^(-40)erg*cm^3:   -0.1849195295047032E-09

    length representation:              -0.2378827866810261E-14

    length rep. / 10^(-40)erg*cm^3:     -0.1536837375973483E-09


 Dominant contributions:

      occ. orbital   energy / eV   virt. orbital     energy / eV   |coeff.|^2*100
       22 a              -6.50          23 a              -0.66       99.6
 

 Change of electron number:

             0.000000


 Electric transition dipole moment (velocity rep.):

    x       -0.035060        Norm:                  0.035061
    y       -0.000000
    z       -0.000188        Norm / debye:          0.089116


 Electric transition dipole moment (length rep.):

    x        0.007232        Norm:                  0.007237
    y       -0.000000
    z       -0.000285        Norm / debye:          0.018396


 Magnetic transition dipole moment / i:

    x       -0.000000        Norm:                  0.001695
    y        0.001695
    z        0.000000        Norm / Bohr mag.:      0.464458


 Electric quadrupole transition moment:

   xx        0.091844
   yy       -0.091211        1/3*trace:             0.000528
   zz        0.000951
   xy       -0.000000
   xz       -0.068795        Anisotropy:            0.198319
   yz       -0.000000




                         2 singlet a excitation


 Total energy:                           -2613.775699405614    

 Excitation energy:                      0.2295721733853218    

 Excitation energy / eV:                  6.246979359595922    

 Excitation energy / nm:                  198.4707117945210    

 Excitation energy / cm^(-1):             50385.26797273987    


 Oscillator strength:

    velocity representation:             0.1873262327183945E-03

    length representation:               0.8224629162985782E-05

    mixed representation:                0.3925160884101400E-04


 Rotatory strength:

    velocity representation:            -0.1033695172059475E-14

    velocity rep. / 10^(-40)erg*cm^3:   -0.6678168681092936E-10

    length representation:              -0.6092558366257780E-15

    length rep. / 10^(-40)erg*cm^3:     -0.3936086146964463E-10


 Dominant contributions:

      occ. orbital   energy / eV   virt. orbital     energy / eV   |coeff.|^2*100
       21 a              -6.50          23 a              -0.66       99.6
 

 Change of electron number:

             0.000000


 Electric transition dipole moment (velocity rep.):

    x       -0.000000        Norm:                  0.034985
    y        0.034985
    z       -0.000000        Norm / debye:          0.088924


 Electric transition dipole moment (length rep.):

    x        0.000000        Norm:                  0.007331
    y       -0.007331
    z       -0.000000        Norm / debye:          0.018633


 Magnetic transition dipole moment / i:

    x        0.001693        Norm:                  0.001693
    y        0.000000
    z        0.000000        Norm / Bohr mag.:      0.464004


 Electric quadrupole transition moment:

   xx        0.000000
   yy       -0.000000        1/3*trace:             0.000000
   zz        0.000000
   xy        0.091412
   xz       -0.000000        Anisotropy:            0.198708
   yz        0.069321




                         3 singlet a excitation


 Total energy:                           -2613.706980042843    

 Excitation energy:                      0.2982915361560720    

 Excitation energy / eV:                  8.116929164500755    

 Excitation energy / nm:                  152.7477220679851    

 Excitation energy / cm^(-1):             65467.42473878960    


 Oscillator strength:

    velocity representation:             0.1076402583621094E-03

    length representation:               0.7823604289325955E-05

    mixed representation:                0.2901649536696479E-04


 Rotatory strength:

    velocity representation:             0.1433163381980042E-14

    velocity rep. / 10^(-40)erg*cm^3:    0.9258925717298094E-10

    length representation:               0.8552980200874550E-15

    length rep. / 10^(-40)erg*cm^3:      0.5525637156037915E-10


 Dominant contributions:

      occ. orbital   energy / eV   virt. orbital     energy / eV   |coeff.|^2*100
       22 a              -6.50          24 a               1.60       99.8
 

 Change of electron number:

            -0.000000


 Electric transition dipole moment (velocity rep.):

    x       -0.023259        Norm:                  0.023266
    y        0.000000
    z       -0.000561        Norm / debye:          0.059135


 Electric transition dipole moment (length rep.):

    x       -0.006272        Norm:                  0.006272
    y        0.000000
    z       -0.000060        Norm / debye:          0.015943


 Magnetic transition dipole moment / i:

    x       -0.000000        Norm:                  0.002314
    y       -0.002314
    z       -0.000000        Norm / Bohr mag.:      0.634067


 Electric quadrupole transition moment:

   xx       -0.292163
   yy        0.291348        1/3*trace:            -0.000339
   zz       -0.000202
   xy       -0.000000
   xz       -1.084150        Anisotropy:            1.944610
   yz        0.000000




                         4 singlet a excitation


 Total energy:                           -2613.706961396243    

 Excitation energy:                      0.2983101827566976    

 Excitation energy / eV:                  8.117436564537600    

 Excitation energy / nm:                  152.7381742015879    

 Excitation energy / cm^(-1):             65471.51719457571    


 Oscillator strength:

    velocity representation:             0.1079277264738145E-03

    length representation:               0.8001878571416621E-05

    mixed representation:                0.2938748988485628E-04


 Rotatory strength:

    velocity representation:             0.3443104180146060E-14

    velocity rep. / 10^(-40)erg*cm^3:    0.2224411134259281E-09

    length representation:               0.2878838235193518E-14

    length rep. / 10^(-40)erg*cm^3:      0.1859868156479700E-09


 Dominant contributions:

      occ. orbital   energy / eV   virt. orbital     energy / eV   |coeff.|^2*100
       21 a              -6.50          24 a               1.60       99.8
 

 Change of electron number:

             0.000000


 Electric transition dipole moment (velocity rep.):

    x       -0.000000        Norm:                  0.023296
    y       -0.023296
    z       -0.000000        Norm / debye:          0.059213


 Electric transition dipole moment (length rep.):

    x       -0.000000        Norm:                  0.006343
    y       -0.006343
    z       -0.000000        Norm / debye:          0.016123


 Magnetic transition dipole moment / i:

    x        0.002316        Norm:                  0.002316
    y       -0.000000
    z        0.000000        Norm / Bohr mag.:      0.634620


 Electric quadrupole transition moment:

   xx       -0.000000
   yy        0.000000        1/3*trace:             0.000000
   zz        0.000000
   xy        0.291944
   xz       -0.000000        Anisotropy:            1.945385
   yz       -1.084563




                         5 singlet a excitation


 Total energy:                           -2613.667108948430    

 Excitation energy:                      0.3381626305695141    

 Excitation energy / eV:                  9.201877310316400    

 Excitation energy / nm:                  134.7379885922487    

 Excitation energy / cm^(-1):             74218.11846078464    


 Oscillator strength:

    velocity representation:             0.8521602098784721E-06

    length representation:               0.3446477610753152E-06

    mixed representation:                0.5419364431481667E-06


 Rotatory strength:

    velocity representation:            -0.1162886800452565E-13

    velocity rep. / 10^(-40)erg*cm^3:   -0.7512808824448943E-09

    length representation:              -0.1097286087637981E-13

    length rep. / 10^(-40)erg*cm^3:     -0.7088996623698410E-09


 Dominant contributions:

      occ. orbital   energy / eV   virt. orbital     energy / eV   |coeff.|^2*100
       22 a              -6.50          25 a               2.71       51.1
       21 a              -6.50          26 a               2.71       48.9
 

 Change of electron number:

            -0.000000


 Electric transition dipole moment (velocity rep.):

    x       -0.000000        Norm:                  0.001944
    y       -0.001944
    z       -0.000000        Norm / debye:          0.004942


 Electric transition dipole moment (length rep.):

    x       -0.000000        Norm:                  0.001236
    y       -0.001236
    z       -0.000000        Norm / debye:          0.003143


 Magnetic transition dipole moment / i:

    x       -0.000026        Norm:                  0.001177
    y        0.000000
    z        0.001177        Norm / Bohr mag.:      0.322637


 Electric quadrupole transition moment:

   xx        0.000000
   yy        0.000000        1/3*trace:             0.000000
   zz        0.000000
   xy       -0.000341
   xz        0.000000        Anisotropy:            0.021191
   yz        0.012230




                         6 singlet a excitation


 Total energy:                           -2613.665606953256    

 Excitation energy:                      0.3396646257440481    

 Excitation energy / eV:                  9.242748696056074    

 Excitation energy / nm:                  134.1421779209176    

 Excitation energy / cm^(-1):             74547.76829702867    


 Oscillator strength:

    velocity representation:             0.5014658753257658E-02

    length representation:               0.2843863164123420E-02

    mixed representation:                0.3776360693551861E-02


 Rotatory strength:

    velocity representation:             0.6014195250581944E-15

    velocity rep. / 10^(-40)erg*cm^3:    0.3885459799951872E-10

    length representation:               0.1753240998937366E-14

    length rep. / 10^(-40)erg*cm^3:      0.1132678128522589E-09


 Dominant contributions:

      occ. orbital   energy / eV   virt. orbital     energy / eV   |coeff.|^2*100
       22 a              -6.50          26 a               2.71       50.3
       21 a              -6.50          25 a               2.71       49.5
 

 Change of electron number:

             0.000000


 Electric transition dipole moment (velocity rep.):

    x        0.148803        Norm:                  0.148813
    y        0.000000
    z        0.001773        Norm / debye:          0.378248


 Electric transition dipole moment (length rep.):

    x        0.112054        Norm:                  0.112066
    y        0.000000
    z        0.001636        Norm / debye:          0.284846


 Magnetic transition dipole moment / i:

    x        0.000000        Norm:                  0.002253
    y       -0.002253
    z        0.000000        Norm / Bohr mag.:      0.617540


 Electric quadrupole transition moment:

   xx       -0.057421
   yy        0.055976        1/3*trace:            -0.002580
   zz       -0.006296
   xy        0.000000
   xz       -1.101587        Anisotropy:            1.910539
   yz       -0.000000




                         7 singlet a excitation


 Total energy:                           -2613.665599765123    

 Excitation energy:                      0.3396718138767836    

 Excitation energy / eV:                  9.242944295183664    

 Excitation energy / nm:                  134.1393392050132    

 Excitation energy / cm^(-1):             74549.34590980623    


 Oscillator strength:

    velocity representation:             0.4989972285318734E-02

    length representation:               0.2813652098265204E-02

    mixed representation:                0.3747004936061904E-02


 Rotatory strength:

    velocity representation:            -0.2306218930138645E-14

    velocity rep. / 10^(-40)erg*cm^3:   -0.1489928505742255E-09

    length representation:              -0.3592098848990588E-14

    length rep. / 10^(-40)erg*cm^3:     -0.2320668866521389E-09


 Dominant contributions:

      occ. orbital   energy / eV   virt. orbital     energy / eV   |coeff.|^2*100
       21 a              -6.50          26 a               2.71       51.0
       22 a              -6.50          25 a               2.71       48.8
 

 Change of electron number:

            -0.000000


 Electric transition dipole moment (velocity rep.):

    x       -0.000000        Norm:                  0.148445
    y        0.148445
    z        0.000000        Norm / debye:          0.377312


 Electric transition dipole moment (length rep.):

    x       -0.000000        Norm:                  0.111468
    y        0.111468
    z        0.000000        Norm / debye:          0.283326


 Magnetic transition dipole moment / i:

    x        0.002253        Norm:                  0.002253
    y        0.000000
    z        0.000013        Norm / Bohr mag.:      0.617579


 Electric quadrupole transition moment:

   xx        0.000000
   yy       -0.000000        1/3*trace:            -0.000000
   zz       -0.000000
   xy        0.056124
   xz        0.000000        Anisotropy:            1.906238
   yz       -1.099135




                         8 singlet a excitation


 Total energy:                           -2613.663555029605    

 Excitation energy:                      0.3417165493953903    

 Excitation energy / eV:                  9.298584403443339    

 Excitation energy / nm:                  133.3366872064483    

 Excitation energy / cm^(-1):             74998.11348263160    


 Oscillator strength:

    velocity representation:             0.3548449445235431E-01

    length representation:               0.3127172958532172E-01

    mixed representation:                0.3331157470874949E-01


 Rotatory strength:

    velocity representation:             0.1184997479089836E-13

    velocity rep. / 10^(-40)erg*cm^3:    0.7655654457846790E-09

    length representation:               0.1112119116541211E-13

    length rep. / 10^(-40)erg*cm^3:      0.7184825134602586E-09


 Dominant contributions:

      occ. orbital   energy / eV   virt. orbital     energy / eV   |coeff.|^2*100
       21 a              -6.50          25 a               2.71       48.9
       22 a              -6.50          26 a               2.71       48.1
 

 Change of electron number:

            -0.000000


 Electric transition dipole moment (velocity rep.):

    x        0.000599        Norm:                  0.394668
    y        0.000000
    z       -0.394668        Norm / debye:          1.003154


 Electric transition dipole moment (length rep.):

    x        0.000312        Norm:                  0.370500
    y        0.000000
    z       -0.370500        Norm / debye:          0.941725


 Magnetic transition dipole moment / i:

    x        0.000000        Norm:                  0.000010
    y       -0.000010
    z       -0.000000        Norm / Bohr mag.:      0.002764


 Electric quadrupole transition moment:

   xx        0.178523
   yy        0.178755        1/3*trace:             0.602590
   zz        1.450493
   xy        0.000000
   xz       -0.004190        Anisotropy:            1.271875
   yz       -0.000000




                         9 singlet a excitation


 Total energy:                           -2613.616755920937    

 Excitation energy:                      0.3885156580625514    

 Excitation energy / eV:                  10.57205348978834    

 Excitation energy / nm:                  117.2754603693843    

 Excitation energy / cm^(-1):             85269.33057444596    


 Oscillator strength:

    velocity representation:             0.1078218594515753E-01

    length representation:               0.9013775155864314E-02

    mixed representation:                0.9858407569094027E-02


 Rotatory strength:

    velocity representation:             0.4687067922164341E-14

    velocity rep. / 10^(-40)erg*cm^3:    0.3028071625950509E-09

    length representation:               0.4315064337565669E-14

    length rep. / 10^(-40)erg*cm^3:      0.2787739393095869E-09


 Dominant contributions:

      occ. orbital   energy / eV   virt. orbital     energy / eV   |coeff.|^2*100
       19 a             -10.95          23 a              -0.66       99.7
 

 Change of electron number:

             0.000000


 Electric transition dipole moment (velocity rep.):

    x       -0.000000        Norm:                  0.204030
    y        0.204030
    z       -0.000000        Norm / debye:          0.518597


 Electric transition dipole moment (length rep.):

    x       -0.000000        Norm:                  0.186550
    y        0.186550
    z       -0.000000        Norm / debye:          0.474166


 Magnetic transition dipole moment / i:

    x       -0.001684        Norm:                  0.001684
    y       -0.000000
    z       -0.000000        Norm / Bohr mag.:      0.461458


 Electric quadrupole transition moment:

   xx        0.000000
   yy       -0.000000        1/3*trace:             0.000000
   zz        0.000000
   xy        0.162466
   xz        0.000000        Anisotropy:            1.761889
   yz       -1.004169




                        10 singlet a excitation


 Total energy:                           -2613.616731254137    

 Excitation energy:                      0.3885403248628115    

 Excitation energy / eV:                  10.57272470786247    

 Excitation energy / nm:                  117.2680150408785    

 Excitation energy / cm^(-1):             85274.74431132359    


 Oscillator strength:

    velocity representation:             0.1084747243212315E-01

    length representation:               0.9070928162662889E-02

    mixed representation:                0.9919495386001844E-02


 Rotatory strength:

    velocity representation:            -0.3577662367229507E-14

    velocity rep. / 10^(-40)erg*cm^3:   -0.2311342203984121E-09

    length representation:              -0.3352736189983500E-14

    length rep. / 10^(-40)erg*cm^3:     -0.2166029060124742E-09


 Dominant contributions:

      occ. orbital   energy / eV   virt. orbital     energy / eV   |coeff.|^2*100
       18 a             -10.96          23 a              -0.66       99.7
 

 Change of electron number:

            -0.000000


 Electric transition dipole moment (velocity rep.):

    x        0.204520        Norm:                  0.204641
    y        0.000000
    z        0.007014        Norm / debye:          0.520149


 Electric transition dipole moment (length rep.):

    x        0.187014        Norm:                  0.187134
    y        0.000000
    z        0.006715        Norm / debye:          0.475652


 Magnetic transition dipole moment / i:

    x       -0.000000        Norm:                  0.001681
    y        0.001681
    z       -0.000000        Norm / Bohr mag.:      0.460804


 Electric quadrupole transition moment:

   xx       -0.166266
   yy        0.160750        1/3*trace:            -0.008097
   zz       -0.018776
   xy        0.000000
   xz       -1.006139        Anisotropy:            1.765618
   yz       -0.000000

 SUMMARY OF EXCITATION ENERGIES AND DIPOLE OSCILLATOR STRENGTHS (velocity/length):

 -----------------------------------------------------------------------------------------------
 |    Exc.   | energy (Eh) | energy (eV) | energy (cm-1) | energy (nm) | Osc.(vel) | Osc.(len) |
 -----------------------------------------------------------------------------------------------
 |     1 a   |    0.229551 |     6.24641 |     50380.719 |     198.489 |   0.00019 |   0.00001 |
 |     2 a   |    0.229572 |     6.24698 |     50385.268 |     198.471 |   0.00019 |   0.00001 |
 |     3 a   |    0.298292 |     8.11693 |     65467.425 |     152.748 |   0.00011 |   0.00001 |
 |     4 a   |    0.298310 |     8.11743 |     65471.517 |     152.738 |   0.00011 |   0.00001 |
 |     5 a   |    0.338163 |     9.20187 |     74218.118 |     134.738 |   0.00000 |   0.00000 |
 |     6 a   |    0.339665 |     9.24275 |     74547.768 |     134.142 |   0.00501 |   0.00284 |
 |     7 a   |    0.339672 |     9.24294 |     74549.346 |     134.139 |   0.00499 |   0.00281 |
 |     8 a   |    0.341717 |     9.29858 |     74998.113 |     133.337 |   0.03548 |   0.03127 |
 |     9 a   |    0.388516 |    10.57205 |     85269.331 |     117.275 |   0.01078 |   0.00901 |
 |    10 a   |    0.388540 |    10.57272 |     85274.744 |     117.268 |   0.01085 |   0.00907 |
 -----------------------------------------------------------------------------------------------


 

 Data group $exopt missing or empty
 Default for state to be optimized is  10

 

 Excited state no.   10 chosen for optimization


                       ----------------------
                        CPKS right-hand side 
                       ----------------------


          IRREP   tensor space dimension   number of roots

           a               660                   1

                          ----------------
                           CPKS equations 
                          ----------------


 logfile dipl_a    will be constructed

 Switching to coarse grid

 preparing numerical integration ....
          Overall gridpoints after grid construction =          7239


                       Nonorthonormal Krylov Space Iteration


 total number of roots to be determined: 1


 maximum core memory set to   500 MB,
 corresponding to    19574 vectors in CAO basis


 maximum number of simultaneously treated vectors (including degeneracy):        1


 Iteration IRREP Converged      Max. Euclidean
                 roots          residual norm

    1       a        0        9.743946585194213D-02
 
    2       a        0        1.991126524818937D-02
 
    3       a        0        6.997554213182942D-03
 
    4       a        0        9.481750498640369D-04
 
    5       a        0        1.415471937993454D-04
 
    6       a        0        3.134244907206861D-05
 
    7       a        1        4.261552775180052D-06
 

 converged!


 Switching to fine grid

 preparing numerical integration ....
          Overall gridpoints after grid construction =         26176

 Iteration IRREP Converged      Max. Euclidean
                 roots          residual norm

    8       a        0        2.468160262148714D-05
 

 NOTE: Residual norms are larger than 1.00D-05 due to mgrid option!

 Eigenpairs written on logfile dipl_a   



 IRREP   Vector     Frequency            Euclidean residual norm

  a         1    0.000000000000000D+00    2.468160262148714D-05
 

                          -------------------
                           relaxed densities 
                          -------------------


    ----------------------------------------
     S+T+V CONTRIBUTIONS TO ENERGY GRADIENT 
    ----------------------------------------

 1e-integral 1st. derivatives will be neglected if expon. factor < 0.100000E-10


    -----------------------------------------------
     TWO ELECTRON CONTRIBUTIONS TO ENERGY GRADIENT 
    -----------------------------------------------

 biggest 1-particle AO density matrix element is expected to be    3.2223643872

 core memory to be involved in 2e-gradient :
   symmetry shell pair data              :         1
   two particle density+dens. estimates  :      1596
   derivative integrals                  :      8498
   derivative integral bound             :       900
   totally                               :      9396


 setting up bound for integral derivative estimation

 increment for numerical differentiation : 0.00050000

 biggest AO integral is expected to be    21.668154127
 biggest cartesian 1st derivative AO integral is expected to be    83.347447328

 2e-integral 1st. derivatives will be neglected if expon. factor < 0.100000E-06
 outer boundary for 2e-integral derivative neglection is 0.160509E-08

 Integrated ground state density     :   43.99999821249069    


          ------------------------------------------------
           cartesian gradient of the energy (hartree/bohr)
          ------------------------------------------------

  ATOM      1 c           2 h           3 h           4 h           5 br
dE/dx -0.9996147D-01  0.1574765D-01  0.1574765D-01  0.7004582D-01 -0.1572280D-02
dE/dy  0.1528135D-08 -0.4221010D-01  0.4221010D-01 -0.9658112D-09 -0.2467778D-09
dE/dz  0.6346040D-01  0.2783371D-01  0.2783371D-01  0.6391999D-01 -0.1830580D+00
 
 resulting FORCE  (fx,fy,fz) = (0.738D-05,0.379D-12,-.102D-04)
 resulting MOMENT (mx,my,mz) = (0.445D-09,-.485D-04,0.147D-08)


 **********************************************************************
  |maximum component of gradient| : 0.18305804      (atom  5 br)       
   gradient norm                  : 0.24926535    
 **********************************************************************

 exx =      -0.105569 eyy =      -0.142144 ezz =      -0.741739
 eyz =       0.000000 exz =      -0.070185 exy =       0.000000


 <getgrd> : data group $grad  is missing 

   ***  cartesian gradients written onto <gradient>  ***
 
 
 
 ==============================================================================
                           electrostatic moments
 ==============================================================================

 reference point for electrostatic moments:    0.00000   0.00000   0.00000

 
              nuc           gs,e       ->  gs,tot          excit     ->  total
 ------------------------------------------------------------------------------
                          charge      
 ------------------------------------------------------------------------------
          44.000000     -44.000000      -0.000000       0.000000      -0.000000
 
 ------------------------------------------------------------------------------
                       dipole moment  
 ------------------------------------------------------------------------------
   x       0.000000       0.000330       0.000330      -0.219991      -0.219661
   y       0.000000      -0.000000      -0.000000       0.000000       0.000000
   z      -8.407100       7.723233      -0.683867      -1.040443      -1.724310
 
   | dipole moment | =     1.7382 a.u. =     4.4182 debye 
 
 ------------------------------------------------------------------------------
                     quadrupole moment
 ------------------------------------------------------------------------------
  xx       5.670137     -24.580502     -18.910365       1.118326     -17.792039
  yy       5.670137     -24.579997     -18.909860      -0.351818     -19.261677
  zz     108.471772    -124.599181     -16.127409      -0.292879     -16.420288
  xy       0.000000       0.000000       0.000000       0.000000       0.000000
  xz       0.000000      -0.000361      -0.000361       0.879013       0.878651
  yz       0.000000       0.000000       0.000000      -0.000000      -0.000000
 
     1/3  trace=     -17.824668
     anisotropy=       2.893717
 
 ==============================================================================
 


    ------------------------------------------------------------------------
         total  cpu-time :   1.87 seconds
         total wall-time :   1.88 seconds
    ------------------------------------------------------------------------

   ****  egrad : all done  ****


    2021-09-20 09:39:27.570 

